id,composition,Natom,Nelem,D,Nmag,CS,SG,E,M,MR,MSVL,dmean,dstd,ehull
mp-984051,Cs1 Ge1 O3,5,3,13.429763615171288,3,1,221,2.4908,50.706,0.0,4.064553,2.6861273585781005,0.4679591904346869,0.598435885249998
mp-22030,Eu4 B4 O12,20,3,11.96685505318992,4,6,2,3.0940000000000003,42.162,0.0,7.541953409014885,4.17457778318773,1.4244259676763482,0.023315181666667684
mp-981934,La1 Be1 O3,5,3,10.193129971679252,3,1,221,3.118,39.18244,0.5,3.707597,2.4502270572636373,0.42686221352706527,0.2598904975000007
mp-22224,Mn4 Se4 O12,20,3,12.916748863733838,4,2,62,2.636,36.382,0.5,8.016771000004383,4.56216841005665,1.6986402818901793,0.0202544244999876
mp-777295,Tm4 Cr4 O12,20,3,10.650730320262543,4,2,62,2.864,53.779999999999994,0.5,7.48369507,4.318039576401672,1.487660824292132,0.0
mp-4438,Ca4 Sn4 O12,20,3,12.440285609619917,0,2,62,2.556,41.356,0.5,7.90708393,4.575467060376503,1.5818379744878361,0.0
mp-756147,Cr4 In4 O12,20,3,11.052893690384021,4,2,62,2.884,42.96,0.5,7.729873000022387,4.390426260503897,1.5330374649189902,0.05128290449999984
mp-754712,N4 Cl4 O12,20,3,15.854975300212965,0,2,19,2.8240000000000003,19.492,0.0,11.89242409,5.690928797098887,2.5442536471783415,0.0
mp-6989,Ba2 Se2 O6,10,3,17.675970785828287,0,7,11,2.432,52.854,0.5,7.112537212459885,3.9111579300141677,1.2949406028396742,0.0
mp-546079,Mg2 C2 O6,10,3,9.076659996550486,0,2,20,3.336,16.863999999999997,0.5,6.016272383728814,2.8083757842242543,0.9024939651144933,0.3780616330000015
mp-1184960,K1 Mg1 O3,5,3,14.065494429685256,3,1,221,2.0488,22.282,2.0,4.127702,2.7278604240755486,0.4752296467226871,0.36418468000000015
mp-995191,Ba1 Ti1 O3,5,3,17.091664807444936,0,2,38,2.91,46.634,2.0,5.032511,3.434644294946568,1.5237203595332138,1.8066555419999677
mp-1183286,Ba1 Dy1 O3,5,3,17.36575744087817,4,1,221,2.548,69.56,0.5,4.428139,2.926409205510832,0.5098194909925555,0.10872087100000094
mp-1406914,Al2 Sn2 O6,10,3,12.722052767406465,0,3,194,2.8660000000000005,38.736000000000004,0.5,12.470372,5.059677187691576,2.62492233565212,0.658372996125002
mp-676020,Ba2 C2 O6,10,3,16.74391229382875,0,7,12,3.414,39.462,0.5,9.403107408591739,3.7562401663444778,1.5146969483516575,0.03376590800000123
mp-562466,Sr4 Co4 O12,20,3,12.989871342534276,8,6,2,2.782,38.910000000000004,0.5,9.648816106655282,5.34120560473654,2.2414123532548618,0.07356881462903342
mp-976283,Li1 Y1 O3,5,3,10.024233522562305,3,1,221,2.7600000000000002,28.77,0.5,3.687005,2.4366184920492486,0.42449142007218094,0.41570530008928497
mp-1188804,Dy4 Mn4 O12,20,3,13.273807359840152,4,2,62,2.7520000000000002,53.088,0.5,12.99438,5.577231417777907,2.609741457912826,0.32379329116666433
mp-770581,Mg4 Mn4 O12,20,3,9.561573409635576,4,2,62,2.446,25.45,2.0,7.304405,4.158853950270016,1.4403651204888013,0.07673693500000045
mp-562779,Er4 Co4 O12,20,3,10.072554719694448,0,2,62,3.096,54.846000000000004,0.5,7.3068925,4.255948702611128,1.4635499615248424,0.0
mp-769855,Sr4 Cr4 O12,20,3,12.400767481166845,4,2,40,2.724,37.524,0.5,9.282726,4.633172611432475,1.9878185470901666,0.07022002743750377
mp-1185310,Li1 Er1 O3,5,3,9.768934395511888,4,1,221,2.544,44.448,0.5,3.655435,2.4157549332002652,0.42085671002115604,0.460419717214287
mp-1016852,Ba1 Mn1 O3,5,3,13.122475608185718,4,1,221,2.524,48.048,2.0,4.033313,2.665481885710117,0.46436247386851615,0.13373945366666717
mp-654759,Fe1 Bi1 O3,5,3,23.85609675827564,1,5,146,2.8520000000000003,62.565999999999995,0.5,6.527904843501404,2.7548068700890527,0.6946155493052787,0.5886216410000014
mp-756062,Ce4 Fe4 O12,20,3,12.296241062818359,4,2,62,3.2800000000000002,48.79,0.5,7.77725,4.486881718723693,1.573583336265287,0.07979085999999569
mp-1325463,Sr14 Cr14 O42,70,3,12.317621275545681,10,2,63,2.724,37.524,0.5,32.278374,11.711776956775235,7.101407139821545,0.1985805120803601
mp-998363,Ni1 Bi1 O3,5,3,11.878933140557834,1,7,8,2.8840000000000003,63.13399999999999,0.5,3.9839155808049034,3.04010499910176,0.944357378477674,0.1387443542500142
mp-755236,Ho4 Ti4 O12,20,3,11.638253485190596,8,2,62,3.1580000000000004,52.153999999999996,0.5,7.674495,4.443439022338011,1.528967314690158,0.05838306849999242
mp-1248478,Al6 Co6 O18,30,3,10.027847199274595,9,6,1,3.116,26.782,2.0,11.855173067750536,5.507511390186527,2.4168015548677153,0.2810460834848447
mp-1147577,Gd1 Cr1 O3,5,3,11.607727537888467,2,1,221,3.2079999999999997,51.46,0.5,3.871736,2.558701041613122,0.4457598274980873,0.23466173249999933
mp-619034,Zn16 Si16 O48,80,3,11.473201291044425,0,2,61,2.7560000000000002,28.294,0.5,18.492968,7.897975774171917,3.7491481858686964,0.05362987812500286
mp-975443,In1 Cu1 O3,5,3,10.865087388919019,0,1,221,2.762,45.269999999999996,0.5,3.787341,2.5029272041389397,0.4360432815761285,0.5076098956250004
mp-1373518,Zn4 Fe4 O12,20,3,10.184653426038825,4,2,62,2.6860000000000004,33.846,2.0,7.588825,4.26670685999378,1.5322289018001127,0.16144739425000054
mp-1188025,Zr1 Ni1 O3,5,3,10.052938793858656,1,1,221,3.6980000000000004,39.582,2.0,3.690521,2.43894209904681,0.4248962233835335,1.0092109739999975
mp-1178485,Bi4 C4 O12,20,3,15.507537458912285,0,6,2,3.47,53.798,0.0,8.81354067987843,4.459332217000265,1.6222109177023596,0.07999996737499604
mp-19227,Y2 Mn2 O6,10,3,12.505119599578148,2,3,194,3.018,38.37,0.5,11.25355968,4.61449202032663,2.308342087501839,0.019520051666665594
mp-976727,Pr1 Bi1 O3,5,3,17.610374800697468,0,1,221,2.736,79.576,0.0,4.448834,2.940085839985958,0.5122021430199852,0.7655784768750005
mp-1183154,Al1 Pb1 O3,5,3,11.27585354296228,0,1,221,2.644,56.43599999999999,2.0,3.83448,2.534079795224851,0.44147047818985224,0.2562708705909049
mp-3731,Li8 Nb8 O24,40,3,10.726559048942411,0,5,161,3.4,29.57,0.5,17.23389729170632,6.903743432950273,3.553915088231925,0.0
mp-1185232,La4 Co4 O12,20,3,11.849349489864172,0,2,62,3.332,49.166000000000004,0.5,7.809735,4.5485092241035545,1.6672737660948094,0.04748672250000041
mp-770618,Mg2 Mn2 O6,10,3,9.625948702724264,2,5,148,2.446,25.45,2.0,7.907320915418012,3.9334794079706166,1.7089045581497737,0.0
mp-1289249,Mn4 Si4 O12,20,3,11.548571273410698,4,7,15,3.0700000000000003,26.206,0.5,7.387659414059921,4.26462547359569,1.5462939282332595,0.014492594166672035
mp-976133,Na1 As1 O3,5,3,10.28939418167657,0,1,221,2.3746,29.182,2.0,3.719232,2.4579162402604036,0.42820177169759666,0.30443091166666747
mp-1256030,Mg8 Si8 O24,40,3,10.563195273294077,0,2,62,2.7880000000000003,20.080000000000002,0.5,9.671739,5.324790461162347,2.016314228265744,0.4418510981666701
mp-1343137,Ti4 Zn4 O12,20,3,10.290095027031668,0,2,62,2.8,32.25,2.0,7.569575,4.296524589810856,1.5182530843417243,0.1041846315000079
mp-19242,Y4 Ni4 O12,20,3,10.502496206390854,4,2,62,3.322,39.12,0.5,7.38760105,4.323224859068202,1.4854353922429546,0.0
mp-1275986,Y4 Fe4 O12,20,3,12.634126089327967,4,3,194,3.2900000000000005,38.552,0.5,12.298675816633956,5.485052857098133,2.6132819946736974,0.00871173587499996
mp-1186797,Pu1 In1 O3,5,3,14.280667351953976,1,1,221,2.7840000000000003,81.36,0.0,4.148644,2.741700292603119,0.4776407362978713,0.6567253626666627
mp-22628,Cs2 N2 O6,10,3,17.352384983348454,0,2,59,2.7048,38.982,0.0,6.15494142,4.010701004449684,1.206651304451577,0.004369773555554346
mp-756050,Ta4 Cu4 O12,20,3,14.066150610390414,0,7,12,3.878,58.489999999999995,0.5,6.826634201742642,4.647401811550753,1.5063041400821524,0.02355635849999871
mp-557787,Tl4 Sb4 O12,20,3,18.120345086241926,0,5,163,2.4859999999999998,74.84,0.0,14.72638829,5.869531505976649,2.810391017592432,0.0
mp-1200675,K8 I8 O24,40,3,17.60214158933388,0,5,146,1.9688000000000003,42.8,0.5,8.94754480265801,6.007154235394787,2.1449154696243307,0.0
mp-972066,Zr1 Al1 O3,5,3,9.904779424487977,0,1,221,3.4880000000000004,33.239999999999995,2.0,3.672301,2.4269011094291835,0.42279852249250816,0.5159898236
mp-686057,Li8 Nb8 O24,40,3,11.135219306426787,0,6,1,3.4,29.57,0.5,17.48065835573665,7.050796487410235,3.601115838963569,0.010854103250004243
mp-973613,Li1 Ce1 O3,5,3,9.99453281342341,4,1,221,2.75,39.007999999999996,0.5,3.68336,2.434209633259114,0.4240717647622035,0.47111355300000035
mp-776320,Cu2 As2 O6,10,3,10.90953559538195,0,5,148,2.85,37.294,2.0,8.681057877848358,4.298965305069812,2.00557328420918,0.09167855787499946
mp-8516,Cd4 S4 O12,20,3,15.029701519101502,0,7,14,2.362,38.494,0.5,9.025715,4.784358363402761,1.8196337302908248,0.09627692975000102
mp-1340971,Zn4 W4 O12,20,3,11.394752932278841,4,2,62,3.6100000000000003,59.436,0.5,7.940744,4.4382086915489065,1.5867563926557233,0.08895500149999513
mp-998552,Ba1 Hf1 O3,5,3,14.500638923156393,0,1,221,3.228,72.76,0.5,4.170475671405624,2.9693387477609416,0.8547156874592525,0.0
mp-614951,Rb9 N9 O27,45,3,19.342292802880742,0,5,145,2.7144000000000004,29.496000000000002,0.0,14.281312623044775,6.793956327106503,2.819813170551992,0.03944573311111199
mp-1213022,Er4 Rh4 O12,20,3,11.171173210604334,0,2,62,3.368,63.64000000000001,0.0,7.53016477,4.3338018522075314,1.5654142846150394,0.0
mp-607467,Ca4 Mo4 O12,20,3,12.576979508825573,4,7,14,3.2920000000000003,36.806,0.5,7.916180077207574,4.595311872205611,1.6350365545910757,0.0
mp-1078341,Eu2 Nb2 O6,10,3,13.197665110991448,2,2,74,3.446,58.581999999999994,0.0,8.060552171669649,3.8840910296983235,1.4359999499758271,0.0
mp-1187260,Ta1 In1 O3,5,3,13.455611776942103,0,1,221,3.684,68.74,0.0,4.067159,2.6878495769613897,0.4682592238332608,0.1711279543333326
mp-754098,Li2 V2 O6,10,3,10.948133773155732,0,7,12,2.948,21.176,0.5,9.297150504464573,5.708130623185426,2.6307356904791064,0.11134896500000746
mp-22942,Ba2 Bi2 O6,10,3,16.731160052336445,0,7,12,2.3760000000000003,78.856,0.5,8.719050560553931,4.369867927169621,2.1785309636540147,1.7434000000093874e-05
mp-1186198,Na1 Zn1 O3,5,3,11.929307992672744,0,1,221,2.0526000000000004,27.274,2.0,3.907165,2.5821148847065847,0.44983883105835837,0.41152234599999904
mp-35730,Ba4 U4 O12,20,3,17.205810328899904,0,2,62,3.05,84.66,0.5,8.803588920374747,5.147332954290339,1.855823655715363,0.0
mp-19168,La2 Mn2 O6,10,3,12.466110534715934,2,5,167,3.0380000000000003,48.368,0.5,7.805984336831455,4.0013604040157515,1.9180579896416436,0.14067769045238165
mp-1016880,Zn1 Rh1 O3,5,3,11.784499015123789,2,1,221,2.98,43.256,0.5,3.891291,2.571624288153884,0.44801122930511256,0.7624100170000006
mp-1283081,La2 Mn2 O6,10,3,12.30117361342206,2,1,225,3.0380000000000003,48.368,0.5,7.292617023703436,3.337478194455807,1.11348787219457,0.22475200145238183
mp-2998,Ba2 Ti2 O6,10,3,12.873883348544899,0,1,221,2.91,46.634,2.0,7.404271622396159,3.4628741207051474,1.100688081695209,0.007466672000001395
mp-1187189,Ta1 Ag1 O3,5,3,12.79395295250999,0,1,221,3.7700000000000005,67.36,0.0,3.99937,2.6430500903977627,0.46045455612186,0.03547659099999656
mp-561949,Gd2 B2 O6,10,3,15.743763671055579,2,3,194,3.55,43.222,0.0,6.518395,3.7285701465952874,1.4561134449719821,0.14353684033333103
mp-754329,Cd2 Sn2 O6,10,3,13.104061486299893,0,5,148,2.4200000000000004,55.82000000000001,0.5,8.68566191260644,4.286743086261949,1.7060366805258664,0.001071642000006534
mp-975373,Rb1 Ni1 O3,5,3,13.304978893595413,4,1,221,2.6184000000000003,38.432,0.5,4.051925,2.6777819350385066,0.46650530641427695,0.41978733500001475
mp-29188,V2 Hg2 O6,10,3,14.735919963114139,0,6,2,2.7560000000000002,59.907999999999994,0.5,8.704947353210432,4.381698867393501,1.9088813045309831,0.0034960933749834666
mp-1021667,I1 Cl1 O3,5,3,14.211373657557862,4,1,221,2.0620000000000003,42.07000000000001,0.0,4.141923,2.737258608123423,0.4768669356563465,0.6243508334374992
mp-754636,Er2 Bi2 O6,10,3,15.655404848043222,0,5,148,2.6540000000000004,84.856,0.0,8.73888042399691,4.62084885038164,1.7429641524455062,0.05151718000000116
mp-542897,Ba6 Ir6 O18,30,3,14.240544645552552,4,7,12,3.3280000000000003,75.5,0.5,15.090468476404615,6.470790393080233,3.2328276947116015,0.01625611929166748
mp-770932,Li2 Sb2 O6,10,3,11.539919354575607,0,7,12,2.436,35.348,0.5,11.14597806619839,5.938560389531813,3.199486256773651,0.016233930500000326
mp-978503,Sm1 Be1 O3,5,3,9.539960374533967,3,1,221,2.652,41.482440000000004,0.5,3.626649,2.3967312269909895,0.41754252682417153,0.28489256737500046
mp-1195796,Te8 H8 O24,40,3,11.524211671734001,0,2,33,1.998,35.321600000000004,0.0,12.07919741,5.799084646392775,2.4513686496562026,0.0
mp-776084,Ba6 Si6 O18,30,3,17.285656477882025,0,7,15,2.866,42.678000000000004,0.5,12.333102915897019,5.329326922461375,2.2707705192042313,0.0
mp-2939,Ba2 Tb2 O6,10,3,17.39297807413048,6,4,140,2.75,68.84,0.5,8.261618635296967,4.111883938239737,1.4446964671729503,0.09739728474999954
mp-1101394,Sn2 Ge2 O6,10,3,15.720695864987835,0,5,148,2.958,47.866,0.0,11.034116782305205,4.54964280066085,2.2890782160557177,0.10302002799999954
mp-554211,Tm6 Mn6 O18,30,3,12.006323296947093,6,3,185,2.628,54.36800000000001,0.5,11.350906390000024,5.395312200867822,2.265448348978742,0.0
mp-29762,Gd3 B3 O9,15,3,11.574789633260576,3,5,155,3.55,43.222,0.0,8.467180635695765,3.7491234894489103,1.1137596630467161,0.2194210333333313
mp-5246,K1 Nb1 O3,5,3,13.279941148589145,0,2,38,3.2608000000000006,36.001999999999995,0.5,4.078305425466766,3.1301494994592676,0.7573136667437288,0.00035340000000161353
mp-1075973,Sm1 Mn1 O3,5,3,11.818929390211164,1,1,221,2.572,50.668,0.5,3.895077,2.5741263291359,0.44844711819498206,0.19960383999999998
mp-1182302,Mg8 Si8 O24,40,3,12.477527148995144,0,7,14,2.7880000000000003,20.080000000000002,0.5,15.171364999999998,6.437351038324281,2.9796954854835005,0.2946653999166706
mp-639811,K12 Ir12 O36,60,3,14.232149363030373,0,1,201,3.1348000000000003,55.85999999999999,0.5,9.48725516,6.526283928572008,2.270437193383687,0.0
mp-1186329,Np1 Ru1 O3,5,3,12.44357171283821,2,1,221,3.8540000000000005,77.22,0.0,3.962522,2.6186984775860003,0.456212180576717,0.7717826082500032
mp-1184936,K1 Al1 O3,5,3,11.56530868404236,3,1,221,2.4248000000000003,22.816,2.0,3.867014,2.5555804294849973,0.4452161752693595,0.2883469903680558
mp-1207000,Dy1 Bi1 O3,5,3,17.295567816150264,0,1,221,2.604,83.896,0.0,4.422165,2.9224611883881266,0.5091316937849272,1.1387212700000013
mp-1105153,Sr4 Os4 O12,20,3,12.580279621142157,4,2,62,3.5380000000000003,65.164,0.0,7.970104,4.653541935192276,1.7114547482134934,0.06107738531817919
mp-1406000,Y2 Bi2 O6,10,3,16.84330736052438,0,3,194,2.87,69.178,0.0,13.152414,5.373127310157946,2.746933450871864,0.15527085187500056
mp-756424,Gd4 Lu4 O12,20,3,13.902812123877434,4,2,62,3.274,76.06,0.0,8.264289,4.710026242296911,1.6317014315349427,0.05559696212499787
mp-1226313,Cr1 Mo1 O3,5,3,12.065136790340544,2,5,146,3.7439999999999998,39.19,0.5,4.571026535465558,3.2068779192937766,0.992003924971768,0.44449728624999807
mp-769404,Y8 Se8 O24,40,3,15.527588127532244,0,7,14,2.926,43.176,0.0,12.23956373,6.178342831819947,2.478632957508267,0.0
mp-1186101,Na1 Ag1 O3,5,3,13.90982767952886,3,1,221,2.3726000000000003,35.778000000000006,0.5,4.112418,2.717759738822211,0.47346997271508934,0.3964698464999987
mp-752441,Sr6 Cr6 O18,30,3,11.840285671624734,6,3,194,2.724,37.524,0.5,13.533804,5.728873364589633,2.7728268427517966,0.08573069393750377
mp-22137,Dy4 Co4 O12,20,3,10.192863449486374,0,2,62,3.0460000000000003,53.886,0.5,7.3530512,4.288025892138209,1.4766620806416335,0.00681508300000111
mp-4582,Nd4 Rh4 O12,20,3,12.184607419593977,0,2,62,3.3900000000000006,59.02,0.0,7.7935672,4.526980257054814,1.57919548611015,0.0
mp-976775,Na1 Mg1 O3,5,3,12.970324342843691,3,1,221,2.0846000000000005,19.06,2.0,4.017664,2.6551399841444616,0.46256077676403423,0.37295451600000007
mp-5663,Ba1 Ce1 O3,5,3,17.913239715873452,0,1,221,2.8040000000000003,65.08,0.5,4.474193,2.956844756325881,0.5151217696333504,0.0403338960000017
mp-1184353,Eu1 Tm1 O3,5,3,15.554875378899606,3,1,221,2.4160000000000004,73.78,0.0,4.268535,2.8209322512335726,0.4914439996088442,0.5840283082499997
mp-626536,Nb4 H4 O12,20,3,11.97379785830366,0,6,1,3.0740000000000003,28.3836,0.0,7.851298300620813,4.289481821811557,1.5797221058575142,0.07873416203571182
mp-1185302,Li1 B1 O3,5,3,7.236956238444732,0,1,221,3.048,13.15,0.5,3.307567,2.185860587629216,0.3808060506600569,0.9669265611166633
mp-556021,Ba12 Te12 O36,60,3,18.88346873560136,0,2,62,2.378,62.58,0.5,14.88472134,7.7452523524167605,3.2224656061075296,0.009339549666671054
mp-644497,Ba1 Ti1 O3,5,3,22.308681691893888,0,2,38,2.91,46.634,2.0,6.326703574378209,3.6121615815722543,1.0829947204504742,0.7142725979999689
mp-769171,Si16 Ge16 O48,80,3,12.822760818656732,0,2,61,3.2560000000000002,29.744,0.0,20.06184,8.52474574326373,4.16083263353011,0.10603612629166825
mp-1186106,Mo1 Pb1 O3,5,3,13.860449119542404,1,1,221,3.3299999999999996,70.22999999999999,0.5,4.107546,2.7145399967027224,0.4729090507205188,0.11739229681249697
mp-1184243,Ga1 Sn1 O3,5,3,11.611127678858201,0,1,221,2.75,47.284000000000006,0.0,3.872114,2.5589508491913584,0.4458033473080109,0.5757749151250025
mp-4342,K1 Nb1 O3,5,3,13.238386601540455,0,4,99,3.2608000000000006,36.001999999999995,0.5,4.11029183,3.1224310732548886,0.7448285188380117,0.0011901640000004932
mp-1016840,Hg1 Os1 O3,5,3,12.369416487658201,0,1,221,3.3280000000000003,87.75999999999999,0.5,3.954635,2.6134862226401046,0.4553041362887084,0.31573203749999923
mp-1206846,Sr2 Rh2 O6,10,3,12.170552591947239,2,2,74,3.054,47.704,0.0,7.251459640605541,3.9370545318872914,1.534112791737055,0.017568513749991688
mp-1016886,Mg1 V1 O3,5,3,10.795353378060843,1,1,221,2.9240000000000004,24.65,0.5,3.779221,2.4975609672731265,0.4351084115851776,0.5105881479999992
mp-763901,Na4 V4 O12,20,3,15.81363011490165,0,2,72,2.8446000000000002,24.386,0.5,10.287536899924664,5.264559793127135,2.195896599884571,0.043013442000000346
mp-1206341,Nd1 Sb1 O3,5,3,15.697867659026397,0,1,221,2.79,62.8,0.0,4.281575,2.8295499518161114,0.4929453179194354,0.7686863123332692
mp-22608,Ca4 V4 O12,20,3,10.737149337731278,4,2,62,2.9899999999999998,27.803999999999995,0.5,7.5517753897499755,4.420314695344469,1.5940861099205155,0.0011566264107152335
mp-1185401,Li1 Gd1 O3,5,3,10.159474958463182,4,1,221,2.714,42.448,0.5,3.703512,2.447527417165503,0.42639190023728274,0.3536309167142857
mp-1264966,Al4 Fe4 O12,20,3,9.877934754546033,4,6,2,3.0940000000000003,26.165999999999997,2.0,7.946922731662766,4.288421293939258,1.6087908464710092,0.23604759200001357
mp-3978,Sr6 Si6 O18,30,3,14.928523677552686,0,7,15,2.83,32.742000000000004,0.0,11.77387819790216,5.152147013097608,2.1743767943892385,0.0
mp-22949,Fe2 Bi2 O6,10,3,13.36500252449514,2,5,160,2.8520000000000003,62.565999999999995,0.5,7.430110133719231,3.500249147726153,1.1459659113340188,0.03357941100000161
mp-1173150,Sr4 Nb4 O12,20,3,13.355272654432866,0,4,127,3.4180000000000006,45.706,0.0,8.19387064,4.411566598646698,1.4857569439359588,0.009165774000008398
mp-998781,Tl1 Ni1 O3,5,3,11.53459630412712,1,7,6,2.8240000000000003,62.218,0.5,4.189020005746177,2.929086888593642,0.8417484193999477,0.3047876155833329
mp-771698,La8 Al8 O24,40,3,14.239528830040076,0,7,14,3.132,42.775999999999996,0.5,14.084799535216874,6.244003970345759,2.8010654566343756,0.05711882675000268
mp-1433892,Al1 Mo1 O3,5,3,12.874264765274095,1,1,221,3.6020000000000003,34.186,0.5,4.007721,2.6485689874502762,0.4614160215522087,1.2197774297499997
mp-1184949,K1 Tm1 O3,5,3,17.181490021741702,4,1,221,2.2308,51.2,0.5,4.412421,2.9160217041491507,0.5080098497957862,0.24745524083333326
mp-1184164,Er1 Ga1 O3,5,3,10.817801489213434,0,1,221,2.7800000000000002,57.004,0.0,3.78183872,2.499290931013074,0.43540979432812243,0.3651735735999999
mp-557997,Ca4 Se4 O12,20,3,14.211567739336823,0,7,14,2.4200000000000004,33.410000000000004,0.5,7.240838538154601,4.455670164269986,1.4287910905133405,0.0
mp-1080187,Mn1 Hg1 O3,5,3,11.741378430716482,1,1,221,2.278,60.70799999999999,2.0,3.886539,2.568483850027487,0.4474641231232162,0.30272734433333515
mp-755099,Zn2 Fe2 O6,10,3,10.560542373837738,2,5,148,2.6860000000000004,33.846,2.0,8.019895622009413,3.96268220163976,1.5914365207789996,0.1141321972500009
mp-774520,Ti2 Al2 O6,10,3,9.784417929423466,2,5,148,3.2079999999999997,24.57,2.0,8.024118968884293,3.9358635409428686,1.629019789589813,0.06604736950000145
mp-973892,Eu1 Al1 O3,5,3,10.700800618348465,1,1,221,2.6100000000000003,45.396,0.5,3.768155,2.4902478173769316,0.43383436339307613,0.12039643449999815