id,composition,Natom,Nelem,D,Nmag,CS,SG,E,M,MR,MSVL,dmean,dstd,ehull
mp-1372708,Mg4 Fe4 O12,20,3,9.314894624400198,4,2,62,2.718,25.631999999999998,2.0,7.25737841,4.131149752624833,1.4320027322157367,0.1507718497499999
mp-1186345,Ni1 Pd1 O3,5,3,10.049384407134871,5,1,221,3.2260000000000004,42.618,0.5,3.690086,2.438654622071856,0.42484614106258983,0.7809306560000007
mp-983564,Eu1 As1 O3,5,3,12.785144950387703,1,1,221,2.524,54.984,0.5,3.998452,2.6424434148506175,0.4603488651549027,0.2769656504999993
mp-1184359,Eu1 Hg1 O3,5,3,15.24857543009044,1,1,221,2.0660000000000003,80.12,0.5,4.240331,2.8022931693907887,0.48819682310332946,0.5722669547499999
mp-561465,Tl4 Sb4 O12,20,3,20.533567820135346,0,3,182,2.4859999999999998,74.84,0.0,16.243782,6.254097571895024,3.3165516765924195,0.13476732550000747
mp-1187781,U1 Ir1 O3,5,3,12.889757790130412,1,1,221,4.058,95.64,0.0,4.009328,2.6496310000910848,0.46160103831027,1.3472013400000176
mp-1183977,Cs1 Ti1 O3,5,3,13.854730320570976,3,1,221,2.6908000000000003,45.754000000000005,0.5,4.106981,2.7141666070685866,0.47284400126917786,0.3486867383333383
mp-23477,Mn4 Bi4 O12,20,3,12.929523289407125,4,7,15,2.58,62.38399999999999,0.5,10.009807534296018,5.21401675634862,2.1263228196365827,0.028161421100012518
mp-20716,Pb2 Se2 O6,10,3,15.884181497115526,0,7,11,2.458,66.83399999999999,0.5,6.804866803586298,3.71926606079611,1.238750786060976,0.0008378755000002513
mp-6910,Ba2 Pr2 O6,10,3,18.981459273707014,6,5,167,2.68,65.24000000000001,0.5,9.005939330545406,4.626786293987866,2.2088485216757854,0.11814818900000024
mp-1184400,Eu1 W1 O3,5,3,13.785813822976817,2,1,221,3.7120000000000006,76.76,0.0,4.10016,2.709658835927981,0.4720586874504248,0.2359478567499984
mp-1016904,V1 Cd1 O3,5,3,11.325717908066682,0,1,221,2.854,42.268,0.5,3.840124,2.5378097263665573,0.4421202819126265,0.2858568289999752
mp-975588,Pu1 Pt1 O3,5,3,13.330844287291285,1,1,221,3.4480000000000004,97.42,0.5,4.054549,2.67951604902076,0.4668074121847518,0.8616949345000009
mp-1187321,Tb1 Cu1 O3,5,3,10.827014329477995,0,1,221,3.068,54.089999999999996,0.5,3.782912,2.500000225927279,0.43553336295668005,0.15633404449999944
mp-755605,Tb4 C4 O12,20,3,10.497533138366531,0,7,11,3.844,43.782,0.0,8.068769881372043,3.9988487196546814,1.5963798988982831,0.025706206499998885
mp-20186,Pr4 Ru4 O12,20,3,12.647445054606417,4,2,62,3.6480000000000006,58.0,0.0,7.852293,4.58988973802498,1.5772558497507745,0.0756391043000022
mp-756296,Er4 Ti4 O12,20,3,11.5568752591697,8,2,62,3.188,52.634,0.5,7.660294,4.4056703740818195,1.5777671842972785,0.058028161249993104
mp-1417649,Al1 W1 O3,5,3,12.272098869643141,0,1,221,4.018000000000001,51.75599999999999,0.5,3.94423652,2.606614214422811,0.45410694085724235,1.1784392712500011
mp-1212980,Eu6 In6 O18,30,3,14.650662496069419,6,3,185,2.436,62.96,0.0,12.313653530170413,5.715237251388001,2.446962079339544,0.14854720700000001
mp-1203293,Na24 Nb24 O72,120,3,12.477947824275553,0,2,62,3.2966,32.779999999999994,0.5,23.703308,9.700695449382824,4.898116601411047,0.024570768499998508
mp-5733,Ca12 Si12 O36,60,3,13.288882070132619,0,7,14,2.854,23.234,0.5,15.453185417535822,6.857791567268131,3.020830409220909,1.427616665772291e-05
mp-1197939,Ca18 C18 O54,90,3,13.0035364507734,0,6,2,3.402,20.018,0.5,26.045525547009284,10.134388192102596,5.543396866285592,0.00815612200000082
mp-3047,Mg2 Ge2 O6,10,3,9.120375853022862,0,2,63,2.632,28.988,0.5,6.93351539,4.222142345221881,1.5781531434826293,0.1296794314999925
mp-756118,Tb4 Sm4 O12,20,3,15.071463134117334,0,2,62,2.798,71.46000000000001,0.0,8.507765,4.8255959569651745,1.6749738238039182,0.08270122600000107
mp-1189578,V4 N4 O12,20,3,19.93352747839198,16,2,57,3.6060000000000003,22.59,0.0,12.524772,5.4358707555184775,2.3592129160084454,1.3895059370000036
mp-754941,Eu1 Cr1 O3,5,3,11.678773302083746,2,1,221,2.7520000000000002,50.4,0.5,3.879619,2.5639106530925817,0.44666741125900683,0.18780081700000117
mp-566602,La4 Mn4 O12,20,3,16.605729784005014,2,7,14,3.0380000000000003,48.368,0.5,10.474801,6.090234320148142,2.4315322622654367,0.4200679619523804
mp-754226,Y2 Lu2 O6,10,3,14.849016885400342,0,3,194,3.3200000000000003,62.38199999999999,0.0,12.750389,5.165284988290491,2.6501029914763548,0.073247628499999
mp-19074,Ti2 Fe2 O6,10,3,10.16130315680444,2,2,63,3.386,30.344,2.0,7.256845,3.701340356981912,1.3608459380868712,0.12311842599999956
mp-531689,Ti12 Ni12 O36,60,3,10.401590211299169,12,6,1,3.418,30.912,2.0,33.319870997044475,11.871119668732728,7.463505474124834,0.01594010916666555
mp-1188081,Pu1 Ni1 O3,5,3,10.780115400681968,2,1,221,3.168,70.138,0.5,3.777442,2.496385285575554,0.43490359216228325,0.5158323469999964
mp-21190,Pb2 S2 O6,10,3,15.401303269333644,0,7,11,2.536,57.45399999999999,0.5,6.729463026679175,3.6779254710217484,1.2081135989342784,0.04233965150000163
mp-975208,Rb1 Ru1 O3,5,3,12.595524178632218,0,1,221,3.0784000000000002,46.914,0.0,3.978586,2.629314638794428,0.4580616573666968,0.19918271774999852
mp-19350,La4 V4 O12,20,3,12.07409994228212,4,2,62,3.5159999999999996,47.568,0.0,7.706743090142629,4.584971994908756,1.5791854551426738,0.0
mp-1183759,Ce1 Pu1 O3,5,3,16.63686094071961,2,1,221,3.144,86.42,0.0,4.365297,2.884879026062375,0.5025843801586466,0.5487905186249975
mp-1272373,La4 Mn4 O12,20,3,12.43573208233892,2,2,58,3.0380000000000003,48.368,0.5,8.084110000020832,4.7436783145883865,1.768124377832137,0.17286479545238187
mp-19205,Er4 V4 O12,20,3,11.025180952361488,4,2,62,3.28,53.248000000000005,0.0,7.49784195,4.359007316415355,1.497076733065564,0.0
mp-1078188,Li2 Os2 O6,10,3,9.941236306148031,2,5,167,3.5200000000000005,49.028,0.5,7.596253695726199,3.8779658999258197,1.8728416706424007,0.008333421000000563
mp-1202570,Cu16 Ge16 O48,80,3,12.765274367537128,4,2,55,3.028,36.836,0.5,11.94106,6.791902719934227,2.5251706534917115,0.021574157458335463
mp-1080184,La2 I2 O6,10,3,19.610727813149076,0,7,12,2.676,62.760000000000005,0.0,15.050813531183804,8.237105702908964,4.5668048781295445,0.0982339259999998
mp-1188414,Sr4 Tc4 O12,20,3,12.427860599018548,4,2,62,3.274,46.724000000000004,0.0,7.976984190018936,4.666583524987816,1.7188050198861213,0.0
mp-19083,Na4 V4 O12,20,3,13.829552302417095,0,7,15,2.8446000000000002,24.386,0.5,8.012004858551045,4.44197806967058,1.5836401595460141,0.0
mp-20798,Mn2 Ge2 O6,10,3,10.425051788767346,2,5,148,2.914,35.114,0.5,6.698707329143526,3.6683001438537524,1.4862558884725838,0.0
mp-1245144,Cr16 Fe16 O48,80,3,13.032241627848574,39,6,1,3.2359999999999998,31.169999999999998,2.0,11.176281697194865,6.843970086709694,2.5767946278205387,0.4077534167499888
mp-1183159,Al1 Au1 O3,5,3,10.642760995908928,4,1,221,3.0,54.396,2.0,3.76133,2.4857374027698906,0.4330485890472338,0.5752346087272722
mp-1188613,Mn4 Pb4 O12,20,3,15.864690010589651,4,7,13,2.55,62.028,2.0,10.049228955672111,5.440430316657373,2.2261738517451137,0.060138137884629295
mp-1371109,Y6 Mo6 O18,30,3,14.298912432084093,6,3,185,3.7980000000000005,46.572,0.0,12.517474,5.726818332979677,2.4329002565371924,0.17943056359375298
mp-1184117,Cu1 Pb1 O3,5,3,11.62080102103841,0,1,221,2.664,63.75,2.0,3.873189,2.5596612807961305,0.4459271139632168,0.25070310449999766
mp-1378884,Zn4 Ni4 O12,20,3,9.600906340651658,16,2,62,2.7180000000000004,34.414,2.0,7.368083,4.150767302012043,1.4999442974902732,0.18782766924999983
mp-1376465,Y6 Sn6 O18,30,3,14.996735865189736,0,3,185,3.0620000000000003,51.122,0.0,12.576403,5.794174845998862,2.4479799572429837,0.17856819434374405
mp-1223439,K2 P2 O6,10,3,20.1794081320203,0,7,12,2.4328000000000003,23.613999999999997,0.5,11.550397485128219,4.527827224497964,2.3288069831445157,0.24594154600000007
mp-5933,Ba6 Ti6 O18,30,3,13.341225116938164,0,3,194,2.91,46.634,2.0,13.999272950000098,5.936354935817111,2.869729619618854,0.0026194420000020813
mp-1186316,Nd1 In1 O3,5,3,14.355252679719353,0,1,221,2.744,61.4,0.0,4.155854,2.7464651408546605,0.4784708363760432,0.42484623274999933
mp-1184204,Er1 Ta1 O3,5,3,13.02112040627675,0,1,221,3.838,79.24000000000001,0.0,4.022902,2.658601603442877,0.4631638369872611,0.7205442056000173
mp-1341277,Zn4 Cr4 O12,20,3,10.008481640721977,4,2,62,2.65,33.076,2.0,7.64697318466701,4.274813348522347,1.5380406779444953,0.13911774050000325
mp-3759,Mg2 Ge2 O6,10,3,10.102990576537422,0,5,148,2.632,28.988,0.5,8.040270300305517,3.9493927472049135,1.6008342269689027,0.020074142999993327
mp-975405,Rb1 Au1 O3,5,3,15.001671874787032,3,1,221,2.4924,66.09400000000001,0.5,4.21732,2.787085967849009,0.48554752589128847,0.3856604294999988
mp-18883,Y4 V4 O12,20,3,11.21366056560689,4,2,62,3.496,37.57,0.0,7.512783756453559,4.388485471437054,1.5233563125343166,0.0
mp-1186515,Pr1 Cu1 O3,5,3,11.382084002118221,0,1,221,2.998,50.489999999999995,0.5,3.846484,2.542012838000372,0.44285251998435654,0.024629065499997438
mp-755055,Zr4 Cr4 O12,20,3,12.463129459087872,4,2,62,3.63,38.244,2.0,9.349989000304229,4.62525327689209,1.7667544643430713,0.08593219416667175
mp-19265,Dy4 Ni4 O12,20,3,10.472929847270816,4,2,62,3.056,53.838,0.5,7.390526831971245,4.319698416450554,1.4848436761427413,0.0
mp-1187389,Tb1 V1 O3,5,3,11.350510184323813,2,1,221,3.432,51.568000000000005,0.0,3.842924,2.5396601528720106,0.4424426508750234,0.4001705770000008
mp-761189,Li2 Fe2 O6,10,3,9.644365165026526,2,7,12,2.742,22.157999999999998,2.0,8.371388288268093,4.436283156594546,2.0149728639264586,0.43185827410000144
mp-866101,Ac1 Cr1 O3,5,3,12.272569008052164,1,1,221,3.2299999999999995,65.4,0.5,3.94430226,2.606647500079114,0.4541127396925242,0.0
mp-984357,Cs1 K1 O3,5,3,18.142286746447684,0,1,221,1.9076,44.0,0.5,4.493182,2.9693939523658974,0.5173080068572627,0.6897979190000001
mp-21216,Al8 Fe8 O24,40,3,10.251026128745357,16,2,33,3.0940000000000003,26.165999999999997,2.0,9.376979,5.304304843318789,2.052521327125727,0.04395583500001354
mp-1185122,La1 Sn1 O3,5,3,14.960507028201373,0,1,221,3.082,61.120000000000005,0.0,4.213459,2.7845343618713114,0.48510300211849755,0.5259647370624938
mp-780619,Rb4 Ta4 O12,20,3,17.565840295648535,0,6,2,3.3504000000000005,62.874,0.0,10.38681578549215,5.883987637200983,2.5634995950949393,0.010196908000031257
mp-975596,Pu1 Ir1 O3,5,3,14.133954535977825,0,1,221,3.6680000000000006,96.84,0.0,4.134388,2.7322789782239267,0.47599941775218213,1.396932767500001
mp-776018,Sr6 Ti6 O18,30,3,12.700702230914601,0,3,194,2.874,36.698,0.5,13.886038,5.86960316491574,2.8383491624258514,0.039102471333331223
mp-1212795,Eu4 In4 O12,20,3,13.98082891248429,4,2,62,2.436,62.96,0.0,8.162569,4.688877830214576,1.6910893072088056,0.2181884279999995
mp-1186571,Pm1 Eu1 O3,5,3,17.58856892816781,2,1,221,1.932,69.0,0.0,4.446997,2.9388718280250585,0.5119906459542984,0.7983015077500006
mp-5834,Mg16 Si16 O48,80,3,10.821949112292558,0,2,61,2.7880000000000003,20.080000000000002,0.5,18.449503,7.817934726654911,3.747328591001597,0.0078660889166704
mp-1183128,Al1 V1 O3,5,3,9.649644466358858,1,1,221,3.3,25.184,0.5,3.640495,2.405881586060455,0.4191366413432242,0.7093364996249854
mp-3387,Ca2 Si2 O6,10,3,9.39518266932576,0,4,140,2.854,23.234,0.5,6.716977160148373,3.3696863999768802,1.206451886744645,0.2413004256666582
mp-1106224,Mn4 V4 O12,20,3,10.487442623863132,8,2,62,3.2060000000000004,30.776,0.5,7.602011004207372,4.292615871850772,1.5914533827710622,0.041759783499992764
mp-1224628,Gd2 B2 O6,10,3,12.276300328555719,2,2,40,3.55,43.222,0.0,8.64031518,3.8950483827221523,1.7433739641873471,0.08538103099999894
mp-768307,Ba2 S2 O6,10,3,17.106198078454177,0,7,11,2.5100000000000002,43.474000000000004,0.5,7.026500469368504,3.862494137508409,1.2741097188773032,0.0694253275000003
mp-1184641,Ge1 Te1 O3,5,3,11.880079098201923,0,1,221,2.768,49.646,0.0,3.901783,2.5785581006164606,0.44921919185992276,0.7278014918333389
mp-705845,Ba4 Fe4 O12,20,3,20.77621370073772,4,5,160,2.7960000000000003,48.230000000000004,2.0,21.741989707641956,8.832658592033871,5.676722636559874,0.4609849973333322
mp-559975,Sr4 Mn4 O12,20,3,12.34101414074932,4,2,20,2.4880000000000004,38.112,0.5,9.289115,4.606904978897178,1.883557873209691,0.0
mp-1016876,Zn1 Si1 O3,5,3,8.88927110097798,0,1,221,2.7560000000000002,28.294,0.5,3.542246,2.3409521025839353,0.40782505984803447,0.5788195980000044
mp-687205,Tc4 Pb4 O12,20,3,14.308553844571046,4,1,227,3.336,70.64,0.5,10.460728000000001,4.595087341831916,1.7521227491397453,0.06358349931250018
mp-1376903,Al4 Ni4 O12,20,3,8.915074311232434,4,2,62,3.1260000000000003,26.734,2.0,8.004403278138552,4.07124658567547,1.5499035744888383,0.2430131994242446
mp-3187,Ba4 Ce4 O12,20,3,17.232366586778483,0,2,62,2.8040000000000003,65.08,0.5,8.81258554,5.13804625284121,1.879790955280662,0.0
mp-1348382,Zn4 Sb4 O12,20,3,12.302560804122992,0,7,11,2.38,47.036,0.5,8.063739,4.544043421476766,1.6540544745802575,0.16128341649999278
mp-754678,Ba1 Ta1 O3,5,3,14.097659256105349,0,1,221,3.56,73.24000000000001,0.5,4.130846,2.7299381886945286,0.47559162101475,0.032557649306690806
mp-1183538,Ca1 Tm1 O3,5,3,15.593968958460618,4,1,221,2.412,51.396,0.5,4.272108,2.823293527627853,0.49185536543121716,0.40145595525000033
mp-1078458,Cr2 Fe2 O6,10,3,10.051694794704085,10,5,148,3.2359999999999998,31.169999999999998,2.0,7.231540591212267,3.29499753136398,0.9120599562798447,0.009988677999988482
mp-1178510,Ba1 Pd1 O3,5,3,14.071271076489202,0,1,221,2.718,58.34000000000001,0.5,4.128267,2.728233813709684,0.47529469617402786,0.028700658499994702
mp-1209979,Ni4 Te4 O12,20,3,12.570317294619766,4,2,62,2.886,46.858,0.5,8.154857,4.563870386058475,1.5882722281975592,0.28736651033333427
mp-1190015,Na4 Nb4 O12,20,3,12.023753632037296,0,2,31,3.2966,32.779999999999994,0.5,7.80092354,4.284870378098208,1.4848687588073148,0.00364489049999861
mp-1183168,Ac1 V1 O3,5,3,12.494262662832552,1,1,221,3.472,65.188,0.0,3.96789746,2.6222495606002885,0.4568308265721652,0.0
mp-1106201,Mn4 Ge4 O12,20,3,11.814367501380316,4,7,15,2.914,35.114,0.5,7.1757120837492705,4.223849103152655,1.4733595862690807,0.012176887999994612
mp-2981,Ca18 Te18 O54,90,3,17.187922932329357,0,6,2,2.3660000000000005,43.136,0.5,14.753633852023132,8.009412829156695,3.0651610727740257,0.011534739155556473
mp-755893,Ca4 Bi4 O12,20,3,14.451861403409515,0,7,14,2.364,59.412,0.5,8.330360064301134,4.754254721247042,1.6414185232960365,0.0
mp-1183685,Ce1 Be1 O3,5,3,9.334676303605303,0,1,221,3.088,39.42244,0.5,3.600447,2.379415200099604,0.41452584412677057,0.4189068969999994
mp-1383064,Al1 Cr1 O3,5,3,10.913659283835635,1,4,123,3.0580000000000003,25.396,2.0,3.826701,2.506966903784069,0.43719050436854084,1.3427578774999986
mp-1183449,Be1 V1 O3,5,3,8.063290617875406,4,1,221,3.286,21.59044,0.5,3.428947,2.266076576640605,0.3947807451799616,1.044593364999992
mp-1184032,Ga1 Fe1 O3,5,3,10.842012849247244,4,1,221,2.978,34.714,0.5,3.784658,2.5011540990267505,0.4357343830310889,0.9412599324999995
mp-504703,Eu4 Fe4 O12,20,3,11.976722229580425,8,2,62,2.7880000000000003,51.17,0.5,7.796327,4.5668371827145835,1.5809341213627033,0.14935679699999937
mp-1186134,Na1 Fe1 O3,5,3,11.240611376229833,4,1,221,2.6386000000000003,25.368000000000002,2.0,3.830481,2.5314369896550986,0.4410100662324862,0.14644737849999867
mp-770472,Ho4 Lu4 O12,20,3,13.468623655473118,0,2,62,3.0740000000000003,77.58,0.0,8.258771,4.645213254070652,1.6151306499019695,0.08240886899999822
mp-1183044,Zr1 Tl1 O3,5,3,14.951848670189316,0,1,221,3.186,68.724,0.5,4.212646,2.783997077318121,0.48500939998763026,0.2348801273333052
mp-862832,Pa1 Tl1 O3,5,3,16.764328723361196,0,1,221,1.936,96.67999999999999,0.0,4.37641728,2.8922280477981106,0.5038646777033478,0.0
mp-1244905,Cr16 Fe16 O48,80,3,12.567799670005673,39,6,1,3.2359999999999998,31.169999999999998,2.0,11.392927264674958,6.808319961243513,2.5490221319688517,0.43025082212498766
mp-973830,K1 Er1 O3,5,3,17.34658746921228,4,1,221,2.4048000000000003,50.88,0.5,4.426509,2.9253319929380153,0.5096318262037316,0.2558320526666673
mp-1277045,V2 Co2 O6,10,3,10.306190016310506,4,6,1,3.5,31.574,0.5,7.24372265579377,3.2645463224833873,0.9103377244318899,0.09931393449999781
mp-756947,Al4 Co4 O12,20,3,9.98670077916827,0,7,15,3.116,26.782,2.0,6.795062493459492,4.018641598559205,1.3928858828929611,0.13198388231817937
mp-780393,Ho12 B12 O36,60,3,10.33378518440142,0,6,2,3.35,44.742000000000004,0.0,10.379800619906574,5.739673350118564,2.1078653334858477,0.05910993766666728
mp-1080575,Sr2 Zr2 O6,10,3,13.944806583680602,0,2,74,3.154,45.368,0.5,7.570755832517639,3.5394758798334047,0.992070725947807,0.0045924390000013915
mp-1418444,Al1 Ag1 O3,5,3,12.835812547623599,0,1,221,2.8280000000000003,36.576,0.5,4.003727,2.645929486213569,0.4609561852537039,1.7041112225909103
mp-1389151,Al2 Mo2 O6,10,3,11.437731397711199,2,3,194,3.6020000000000003,34.186,0.5,12.403619,4.990890600940058,2.6148557621598294,0.5801917037499997
mp-1214407,Ba1 B1 O3,5,3,10.74983629367831,3,1,221,3.102,39.222,0.5,3.773902,2.4940458177793743,0.43449602568839585,1.2538978322499972
mp-1187465,Ti1 Be1 O3,5,3,7.784075256453784,0,1,221,3.194,20.97644,2.0,3.388902,2.239612173279581,0.39017029335882486,1.0336706334999999
mp-560522,Mn6 S6 O18,30,3,13.45579565112933,6,5,148,2.714,27.002,0.5,9.275961227127784,5.264611209594176,1.937422393467319,0.07260789195237738
mp-562826,Co16 Se16 O48,80,3,14.349946012595257,16,7,15,2.93,37.18,0.5,16.107954120104328,7.8569459377366,3.2861338116001177,0.0
mp-1347317,Al4 Cu4 O12,20,3,9.67259552670756,0,2,62,2.9360000000000004,27.706,2.0,8.702906,4.222550527398643,1.678554742577028,0.22255048077272477
mp-975179,Rb1 Tl1 O3,5,3,17.811854213243315,3,1,221,2.1064,67.574,0.0,4.465736,2.9512558074128035,0.5141481002351397,0.32226523150000475
mp-4321,Mg4 Si4 O12,20,3,10.074077082452325,0,7,15,2.7880000000000003,20.080000000000002,0.5,6.808898931380343,3.995044589097061,1.3950997566028245,0.019268999666670616
mp-978504,Sm1 Ga1 O3,5,3,11.521606045708841,0,1,221,2.55,53.624,0.0,3.862137,2.5523573830324637,0.4446546776159275,0.21019299108333378
mp-8130,Ca4 Ge4 O12,20,3,10.821360443589665,0,2,62,2.6980000000000004,32.141999999999996,0.5,7.552712,4.426510155376425,1.5352831310224446,0.10737590583333301
mp-1187767,U1 Si1 O3,5,3,10.936175577311886,1,1,221,3.596,62.818,0.0,3.795583,2.508374066731063,0.4369921976432982,0.7788711141666713
mp-1078670,Eu2 H2 O6,10,3,11.510281361410437,6,7,11,1.932,40.2016,0.0,6.871434295443495,3.9494928528102142,1.780345307010311,0.3725279117499998
mp-1016926,Zn1 Ir1 O3,5,3,11.927943269830518,1,1,221,3.218000000000001,61.116,0.5,3.907016,2.5820164155818306,0.44982167642428805,0.7629442669999955
mp-974505,Re1 Te1 O3,5,3,12.852689732197737,0,1,221,3.604,72.35999999999999,0.0,4.005481,2.6470886462459133,0.4611581263822912,0.7946270986666661
mp-1186885,Rb1 Ge1 O3,5,3,12.313069997864698,3,1,221,2.5004,41.22,0.0,3.948621,2.609511770853035,0.4546117338101887,0.4203569594166652
mp-776108,Li8 Nb8 O24,40,3,11.1834375697945,0,2,57,3.4,29.57,0.5,15.149082,6.2523183466910295,3.0213724692471766,0.02983659450000431
mp-546200,Tl1 I1 O3,5,3,15.34951639525956,0,1,221,2.1580000000000004,75.86,0.0,4.249667,2.8084630200532557,0.48927169332937825,0.24399485399999943
mp-781625,Ba1 Os1 O3,5,3,13.426562179041795,1,1,221,3.5740000000000003,75.1,0.5,4.06423,2.685913898663364,0.467922002872239,0.08043483299999732
mp-19893,Pb4 C4 O12,20,3,13.437586650998057,0,2,62,3.4400000000000004,53.44199999999999,0.5,8.54295691,4.420692547581271,1.722055809628628,0.0
mp-1209937,Nd4 Lu4 O12,20,3,14.269779962424147,0,2,62,3.1260000000000003,73.44,0.0,8.327143,4.738114983829946,1.718206065063114,0.022672726374999286
mp-755829,B4 Sb4 O12,20,3,15.66383117680024,0,7,15,3.272,36.122,0.0,13.064605234636856,5.633381194914547,2.449216011994325,0.04718943866666514
mp-1182237,Ba2 Cl2 O6,10,3,20.222125466266043,4,7,11,2.22,44.15,0.5,12.118721452068463,4.317516757504693,1.8951798693887592,0.49663952415999457
mp-1186153,Na1 Pb1 O3,5,3,15.944761424393992,2,1,221,2.1886,55.638,2.0,4.303905,2.8443071031970995,0.49551621039455057,0.3085681223750001
mp-975288,Rb1 Np1 O3,5,3,15.959400023893261,1,1,221,2.6764,74.09400000000001,0.0,4.327718663261457,2.8446669884690143,0.49474965948351823,0.012339059000005648
mp-806062,V4 Cr4 O12,20,3,10.497096037716338,9,6,1,3.442,30.188,0.5,9.025490900975768,4.387867457393042,1.6753429284154069,2.620506569625001