id,composition,Natom,Nelem,D,Nmag,CS,SG,E,M,MR,MSVL,dmean,dstd,ehull
mp-1178579,Al2 Cu2 O6,10,3,9.392117845950876,8,5,148,2.9360000000000004,27.706,2.0,7.715189580304923,3.8296737593924157,1.5962332279199056,0.15037647327272463
mp-559257,Ag8 Te8 O24,40,3,15.000909700238278,0,7,14,2.588,56.7,0.0,13.296162781888556,6.274661043269252,2.5969641352421853,0.0
mp-768417,La6 Al6 O18,30,3,15.592149033732719,0,6,2,3.132,42.775999999999996,0.5,9.116848400162588,5.160744062969671,1.8130216656266256,0.03116461133333459
mp-754208,Er4 In4 O12,20,3,13.183446389366145,0,2,62,2.7220000000000004,66.02000000000001,0.0,8.176804,4.608223095888662,1.600925696712775,0.07976449299999899
mp-1187182,Sr1 Mg1 O3,5,3,13.047044523420539,3,1,221,2.2060000000000004,31.986,0.5,4.02557,2.6603647955559304,0.4634710085557163,0.22068589599999644
mp-17761,Ca6 Ge6 O18,30,3,14.546077733571332,0,6,2,2.6980000000000004,32.141999999999996,0.5,8.802140669959307,5.069699388820806,1.7843988532857553,0.008583364666668203
mp-3163,Ba1 Sn1 O3,5,3,14.22725618659581,0,1,221,2.568,60.8,0.5,4.14346542,2.7382779419986156,0.47704451720455376,0.0
mp-1187655,Tm1 Ge1 O3,5,3,11.746200665916094,0,1,221,2.814,57.90599999999999,0.0,3.887071,2.5688354310635226,0.44752537322607167,0.7538809103750017
mp-561374,Ca18 Te18 O54,90,3,17.683867555241736,0,6,1,2.3660000000000005,43.136,0.5,14.886755169122853,8.245432993752765,3.2001697308240664,0.013546894488890793
mp-1375712,Y6 W6 O18,30,3,14.085753058202764,6,3,185,4.214,64.14200000000001,0.0,12.631849,5.744152033924654,2.466608262684159,0.38938005525000463
mp-13863,Ba4 Ge4 O12,20,3,17.285692056775623,0,2,19,2.71,51.586,0.5,12.94668869,5.603913853128112,2.579890351320849,0.0
mp-546027,Cr2 Bi2 O6,10,3,11.864886501255922,2,5,161,2.816,61.79600000000001,0.5,7.206729368661457,3.8802895834060007,1.4501457790118777,0.014705041000002694
mp-4699,Na4 Ta4 O12,20,3,11.792702714180402,0,2,63,3.4025999999999996,50.378,0.5,7.82031063,4.522384390884478,1.6156252875083834,0.0033295580000007874
mp-769045,Ho6 Ga6 O18,30,3,12.146724965907204,0,3,185,2.75,56.524,0.0,11.63625179000056,5.543157239686858,2.321094099041046,0.0188426235166661
mp-657336,Mg8 Si8 O24,40,3,10.394616512663056,0,2,33,2.7880000000000003,20.080000000000002,0.5,9.562052,5.261705363587386,1.9991730440213675,0.2894799186666708
mp-1016853,Ca1 V1 O3,5,3,11.239951122846511,1,1,221,2.9899999999999998,27.803999999999995,0.5,3.830406,2.5313874246594166,0.44100143134956477,0.10623166291071584
mp-1192651,Ba6 Fe6 O18,30,3,12.591433895777776,6,3,194,2.7960000000000003,48.230000000000004,2.0,13.69047446000121,5.784192342029027,2.8122705145015092,0.0
mp-695836,K2 Sb2 O6,10,3,17.955735057177304,0,6,2,2.2968,41.78,0.5,7.978627801428035,4.303121209471691,1.8177597342574934,0.7646052010000011
mp-3771,Mg2 Ti2 O6,10,3,10.251861914678509,0,5,148,2.832,24.035999999999998,2.0,8.012897034487239,4.0045999580340625,1.6473752409984301,0.0
mp-555731,Sr3 Ge3 O9,15,3,16.5778582753366,0,3,189,2.6740000000000004,41.65,0.0,8.638750415813737,4.67545730085657,1.7734865092494103,0.11267646333332682
mp-756452,Sm4 Dy4 O12,20,3,14.901213141261128,0,2,62,2.596,72.17999999999999,0.0,8.477487,4.812059462480056,1.6694911663408194,0.07495279062499804
mp-1183418,Be1 Cd1 O3,5,3,9.449573438500291,3,1,221,2.4560000000000004,33.88244,2.0,3.615159,2.3891378696525414,0.4162196627606214,0.5170686914999987
mp-1016883,Zr1 Zn1 O3,5,3,14.223100968458258,0,1,221,3.08,40.92,2.0,4.143062,2.738011335191176,0.4769980707449785,0.7579720910000063
mp-1426094,Al1 Sn1 O3,5,3,13.154223022996623,0,1,221,2.8660000000000005,38.736000000000004,0.5,4.036563,2.6676297021896613,0.46473665212844106,1.3186308561250026
mp-9228,Hg4 Se4 O12,20,3,15.250332712949461,0,2,62,2.186,65.514,0.5,8.24957921,4.738170122779892,1.7433191408929831,0.0
mp-1184325,Eu1 Be1 O3,5,3,9.667523466586958,4,1,221,2.596,41.802440000000004,0.5,3.642742,2.407366553331081,0.41939534243554766,0.3987363362499998
mp-1184348,Eu1 Pb1 O3,5,3,15.733652990948539,1,1,221,2.338,81.44,0.5,4.284826,2.8316984291622638,0.49331961131113267,0.42481014324999933
mp-675126,Fe2 C2 O6,10,3,11.426100286432916,2,7,9,3.8900000000000006,23.172,0.5,7.784400853456414,3.4670795548621274,1.3038010076226996,1.5176779809999923
mp-17868,Na6 As6 O18,30,3,13.984691943578252,0,6,2,2.3746,29.182,2.0,8.590752914182135,5.0574651506179205,1.826697777691809,0.0
mp-675625,K2 N2 O6,10,3,17.90882268732527,0,6,1,2.7308,20.222,0.5,7.429203568876962,4.1676335799698805,1.3958975551270016,0.011764387500000417
mp-976293,Na1 Cd1 O3,5,3,15.42515500151004,3,1,221,2.0146,36.678000000000004,2.0,4.256636,2.8130685994520066,0.4900740466504298,0.4743964219999999
mp-1183221,B1 Ir1 O3,5,3,7.969932808789982,0,1,221,4.11,50.202,0.0,3.415662,2.2572969637388396,0.3932512195851608,1.6729221789166662
mp-1183934,Cs1 Ba1 O3,5,3,25.46509473030207,3,1,221,2.1008000000000004,63.64000000000001,0.5,5.030816,3.324698310877591,0.5792067621177213,0.4837627900000001
mp-1183403,Be1 Bi1 O3,5,3,9.91690540177274,3,1,221,2.66,53.198440000000005,0.5,3.673799,2.4278910876096007,0.42297098988739035,0.4854616089999997
mp-1184503,Gd1 Rh1 O3,5,3,12.45565327655751,1,1,221,3.5380000000000003,61.64000000000001,0.0,3.963804,2.6195457085788547,0.4563597795087858,0.42462249075
mp-1178268,Gd1 Al1 O3,5,3,10.423563720382802,1,1,221,3.066,46.456,0.5,3.735328,2.4685535492003225,0.43005493270428957,0.08511760939998503
mp-8216,La4 B4 O12,20,3,12.3524212574134,0,2,62,3.6159999999999997,39.542,0.0,8.25010439,4.338826590885507,1.6669133900490198,0.0
mp-1016902,Zn1 Sn1 O3,5,3,13.079342200373915,0,1,221,2.458,46.416,0.5,4.028889,2.6625582118315014,0.4638531309079291,0.7129046940000006
mp-758727,Cu9 C9 O27,45,3,12.478267998633045,9,6,1,3.732,24.712,0.5,16.93135549335902,7.563856371998023,3.440306258057008,0.1254281724444457
mp-19201,Ca4 Mn4 O12,20,3,10.901021838481673,4,2,62,2.512,28.603999999999996,2.0,7.571465,4.431081668323098,1.5356766655141298,0.03507494383333665
mp-5338,Zn8 Se8 O24,40,3,13.466349452747323,0,2,61,2.322,38.47,0.5,12.01209078,5.940059869017872,2.3464319751950877,0.0
mp-754318,Mn2 Zn2 O6,10,3,9.748952847675998,2,5,148,2.414,33.664,2.0,7.941747700600539,3.984250781141237,1.7569250974033876,0.005794234000003229
mp-1186533,Pm1 Be1 O3,5,3,9.633487234522086,3,1,221,2.224,40.40244,0.5,3.638462,2.4045380442441746,0.4189025784501696,0.2739010000000004
mp-1179320,Sr24 Te24 O72,120,3,18.852480562811472,0,7,15,2.342,52.644000000000005,0.0,26.735195082911435,11.381122409824133,5.537873934113265,0.004332333833333202
mp-20530,Ce1 Cr1 O3,5,3,11.923675748052277,2,1,221,3.2439999999999998,48.019999999999996,0.5,3.90655,2.581703288325091,0.4497671254823533,0.19220243359999856
mp-1017441,Sr1 Rh1 O3,5,3,12.843094673045687,1,1,221,3.054,47.704,0.0,4.004484,2.64642976223665,0.4610433400053232,0.0926481917499915
mp-772180,Lu6 Sc6 O18,30,3,13.051142369930579,0,3,185,3.2260000000000004,53.592000000000006,0.0,12.114255,5.6259844400482475,2.412681137045071,0.04004388916666812
mp-1197679,Na8 Se8 O24,40,3,17.172938008915253,4,7,15,2.2746000000000004,29.991999999999997,0.5,16.265126359936527,7.319175151052753,3.2614053810676826,0.1940341179999976
mp-22246,Eu1 Ti1 O3,5,3,11.899251891500436,1,1,221,2.902,49.574,0.5,3.90388695,2.5799444996333056,0.4494607210521867,0.012852920000000267
mp-1178493,Ca4 Bi4 O12,20,3,15.376767285316337,0,2,62,2.364,59.412,0.5,8.734338,4.863804534523439,1.707824997890041,0.09955102399999749
mp-1195114,K24 As24 O72,120,3,17.440432098801832,0,7,14,2.3388,32.404,2.0,19.12823845,9.072042572111696,3.7870411255475434,0.0028843527499962107
mp-1193101,Sr6 Mn6 O18,30,3,11.350364016702025,6,3,194,2.4880000000000004,38.112,0.5,13.37753335,5.660021144393883,2.746840981272798,0.01504554183333262
mp-983513,Pm1 Ru1 O3,5,3,12.45574754724824,1,1,221,2.9080000000000004,58.82000000000001,0.0,3.963814,2.6195523172449455,0.4563609308265087,0.3878489304999988
mp-755199,V4 Ge4 O12,20,3,11.96135807144761,4,7,15,3.3920000000000003,34.314,0.0,7.166172917173146,4.238907342994655,1.4763056755663342,0.078092769625
mp-1181816,Mn2 Sn2 O6,10,3,17.768584537215784,2,6,2,2.7720000000000002,44.327999999999996,0.5,15.526598367085718,4.097041779152464,1.8694663850879654,0.15408991200000166
mp-1040471,Na1 Mo1 O3,5,3,12.315511805040394,1,1,221,3.1466000000000003,33.388,0.5,3.948882,2.6096842570380074,0.45464178320275495,0.09633984900000225
mp-19843,Ce4 Al4 O12,20,3,10.687575134548565,2,2,74,3.1020000000000003,43.016,0.5,7.53646362,4.432808344742076,1.5678407604595235,0.0
mp-1196533,Cs8 N8 O24,40,3,20.13681793826569,0,1,205,2.7048,38.982,0.0,9.304298,6.032192867834753,2.127477889889231,0.02167331633333447
mp-1427680,Zn1 W1 O3,5,3,13.011049975367323,1,2,38,3.6100000000000003,59.436,0.5,4.072086,2.499880607865042,0.36858823127937196,0.4813213569999961
mp-19150,Ba5 V5 O15,25,3,13.578135495954987,4,5,164,3.002,47.248000000000005,0.5,11.740997,5.437579250040969,2.2365627884314296,0.07513865899998429
mp-5304,La1 Al1 O3,5,3,10.827330306696037,0,1,221,3.132,42.775999999999996,0.5,3.7829488,2.5000245458184933,0.4355375998059001,0.0030534250000027185
mp-23384,Li8 I8 O24,40,3,14.179217943813644,0,4,86,2.108,36.368,0.5,9.578146540008262,5.792503943720938,2.2310877922246237,0.0
mp-756458,Er4 Al4 O12,20,3,9.969458892692668,0,2,62,2.896,48.456,0.5,7.32664956,4.266759735302979,1.4736033939693476,0.017832044700002214
mp-2647004,Cd6 Ir6 O18,30,3,12.942719347387168,6,5,148,3.18,70.52000000000001,0.5,15.028055,6.213279030028983,2.9814604491407355,0.10773032233332902
mp-1105697,Pb4 C4 O12,20,3,14.150412953003558,0,7,14,3.4400000000000004,53.44199999999999,0.5,8.565431,4.4380406346151124,1.8108433271956679,0.001962893499989349
mp-1186888,Rb1 Pu1 O3,5,3,15.711830426040496,1,1,221,2.4504,75.494,0.0,4.28287974,2.8303886356330823,0.49309142794023464,0.02091920800000935
mp-1187469,Ti1 Cu1 O3,5,3,11.420201055884366,4,1,221,3.228,31.883999999999997,2.0,3.850773,2.54484729488676,0.44334632015568515,0.5419663020000023
mp-1389035,Y2 Sb2 O6,10,3,15.870455487683046,0,3,194,2.9840000000000004,51.742,0.0,12.859533,5.2428706912068295,2.677033560319376,0.25643615575000034
mp-775761,Ag4 Cl4 O12,20,3,14.552986166441878,0,1,198,2.43,38.27,0.0,6.6271587,4.771544162626752,1.6265919525792578,0.03158415249999713
mp-19357,La2 Cr2 O6,10,3,11.786084206710214,2,5,167,3.274,47.78,0.5,7.650935804796544,3.9175905793708194,1.8816564173551438,0.00352751849999855
mp-5945,Mn14 Si14 O42,70,3,12.081847994339798,14,6,2,3.0700000000000003,26.206,0.5,16.289420673953643,7.1485421511017915,3.2658843282149306,0.00878835530953026
mp-561598,Ba1 Pb1 O3,5,3,20.37131843028181,0,1,221,2.346,78.5,2.0,4.670138,3.0863382640440937,0.5376812647536564,1.0951720600000003
mp-1194823,Na24 Nb24 O72,120,3,12.674036657317918,0,2,62,3.2966,32.779999999999994,0.5,47.84336804,16.80207959805965,10.804140557581492,0.025033965999996965
mp-3033,Rb4 Ta4 O12,20,3,16.69932369384245,0,7,12,3.3504000000000005,62.874,0.0,8.235151369424067,4.988028667243438,1.8121264786365954,0.0
mp-3336,La2 Ga2 O6,10,3,12.16297027959511,0,5,167,3.016,51.324,0.0,7.7713560338340875,3.9729866133473397,1.9137591731070567,0.03807103814285995
mp-1187746,V1 Co1 O3,5,3,10.76891235772147,2,1,221,3.5,31.574,0.5,3.776133,2.4955202111842554,0.4347528846723627,0.5410671914999963
mp-756205,Sc4 Bi4 O12,20,3,13.411338643778194,0,2,62,2.7760000000000002,60.388,0.0,8.104093,4.680614468429427,1.66086832649657,0.03215716137500024
mp-505819,Tl4 Fe4 O12,20,3,11.878574270035877,4,2,62,2.7920000000000003,61.65,0.5,7.929211197573886,4.522871593728433,1.5983105197937255,0.0472809699999992
mp-559756,Pr4 Sc4 O12,20,3,13.178137627839268,0,2,62,3.08,46.772000000000006,0.0,8.06007464,4.639863119096731,1.6669310215940703,0.0
mp-1184773,In1 Pt1 O3,5,3,13.088781724075977,0,1,221,3.232,71.58,0.5,4.029858,2.66319859157571,0.46396469359527276,0.7689169633749948
mp-1075904,Eu1 Fe1 O3,5,3,11.549739800155894,2,1,221,2.7880000000000003,51.17,0.5,3.865278,2.5544331650516163,0.4450163065126733,0.21751092899999946
mp-1173386,Nd4 Cu4 O12,20,3,12.141479279854131,0,2,62,2.938,51.15,0.5,7.17680555,4.490356053331567,1.5471813682076274,0.020779494499999274
mp-1178577,Al4 Fe4 O12,20,3,9.656260486802077,4,5,148,3.0940000000000003,26.165999999999997,2.0,9.615533602527652,4.438393053808537,1.7617314199865375,0.03255285250001272
mp-1070440,V1 Pb1 O3,5,3,12.163541571686721,1,1,221,3.028,61.227999999999994,0.5,3.932572,2.598905522643744,0.4527639839967932,0.12451647231249918
mp-18969,Fe2 C2 O6,10,3,9.54533447182052,2,5,167,3.8900000000000006,23.172,0.5,8.641374904405872,4.332691221698636,2.1630159674882923,0.0
mp-1416093,Y1 Fe1 O3,5,3,11.711341740398852,1,1,221,3.2900000000000005,38.552,0.5,3.883222,2.5662917554851337,0.44708223103454814,0.34055598087499916
mp-776076,Ba8 Si8 O24,40,3,16.08326443422886,0,7,14,2.866,42.678000000000004,0.5,14.957516324140226,6.614107484849468,3.1145677347507985,0.03891986424999949
mp-1101702,Nd8 Zr8 O24,40,3,14.313376445339642,0,2,55,3.4900000000000007,56.68399999999999,0.5,11.316666,5.841917122156596,2.2732418855040644,0.19990996697499952
mp-1273178,Y4 Co4 O12,20,3,11.346933864283306,4,6,2,3.3120000000000003,39.168,0.5,7.535568798191575,4.413782358700395,1.5166770584049956,0.01095099500001595
mp-1120765,Ba1 Ni1 O3,5,3,13.096831796699808,4,1,221,2.8280000000000003,48.798,2.0,4.030684,2.6637444673948183,0.4640597924391798,0.12427227400000085
mp-13554,Sn2 Hg2 O6,10,3,13.232972520759613,0,5,167,2.322,73.46000000000001,0.5,8.22135347433337,4.1913713536173836,2.029242624173248,0.06499494150000018
mp-1202955,Mn16 Bi16 O48,80,3,12.810453388225762,16,2,31,2.58,62.38399999999999,0.5,15.845744,7.6694955721165075,3.2819216511184375,0.034808669725013175
mp-542112,Ca1 Zr1 O3,5,3,14.398996431142411,0,1,221,3.178,35.86,2.0,4.160071,2.7492520153451947,0.4789563470597673,0.19189308450000375
mp-769263,Tb4 In4 O12,20,3,13.470643426001368,0,2,62,2.874,64.34,0.0,8.204513,4.610518655448706,1.6891545356473656,0.05609104887499683
mp-1187530,Tl1 Hg1 O3,5,3,15.473082067194577,0,1,221,2.0700000000000003,90.6,0.5,4.26104,2.815979055998441,0.49058108697557123,0.604572555125003
mp-22958,K1 Br1 O3,5,3,16.791935233405464,0,5,160,1.9908000000000001,33.4,0.5,4.753886384536483,2.796729916788941,0.8770875993320494,0.0
mp-1194303,Gd6 B6 O18,30,3,11.33083866871103,6,7,15,3.55,43.222,0.0,10.648307072530262,5.42549807211409,2.191518990443555,0.0
mp-655631,Fe1 Bi1 O3,5,3,25.68754179842957,1,5,146,2.8520000000000003,62.565999999999995,0.5,7.290093203082558,2.912079115285427,0.7505135781157837,0.44027724500000076
mp-1099591,Na1 V1 O3,5,3,10.749041590896583,0,1,221,2.8446000000000002,24.386,0.5,3.773809,2.493984357184729,0.4344853184335733,0.1419200870000008
mp-1185236,Li1 Tm1 O3,5,3,9.657813394626196,4,1,221,2.37,44.768,0.5,3.641522,2.4065602960679913,0.4192548816733605,0.4889175464642852
mp-753176,Ag2 C2 O6,10,3,11.334598203986193,0,5,167,3.624,33.58200000000001,0.0,9.190296607027898,4.632174968533924,2.29019041625597,0.004634585999996332
mp-1173151,Sr4 Si4 O12,20,3,18.421145276132503,0,7,7,2.83,32.742000000000004,0.0,10.902415,5.365567857679195,2.1120173945997833,0.9030404454999932
mp-19147,Ni2 C2 O6,10,3,8.894505301232424,2,5,167,3.9219999999999997,23.740000000000002,0.5,8.426066372973652,4.216236170446924,2.1127401497039657,0.0
mp-1206706,Eu2 Ga2 O6,10,3,13.5502516149272,2,3,194,2.494,53.944,0.0,11.597998,4.7389040477760025,2.3744556537310375,0.16424811449999943
mp-18313,Sr6 Si6 O18,30,3,14.186993802115126,0,6,2,2.83,32.742000000000004,0.0,10.328027507661277,5.531173820100266,2.1376351280489745,0.0170194363333227
mp-1016873,Ca1 Hf1 O3,5,3,13.454135079889994,0,1,221,3.216,53.315999999999995,0.5,4.06701021,2.6877512466186237,0.46824209337686246,0.16008691400000075
mp-558843,K1 I1 O3,5,3,14.820383766309515,0,1,221,1.9688000000000003,42.8,0.5,4.200263,2.7758135660977543,0.48358372325142984,0.19728406624999995
mp-556983,La2 Ga2 O6,10,3,12.16841724938779,0,2,74,3.016,51.324,0.0,7.258248197927221,3.5233136447660973,1.040547760303103,0.0375847591428613
mp-1178576,Al2 Co2 O6,10,3,8.802147690236614,0,5,148,3.116,26.782,2.0,7.553543464954291,3.7695234682598393,1.5548489329791517,0.06170013381817885
mp-23339,Na4 Br4 O12,20,3,14.638766024068655,0,1,198,2.0266,30.177999999999997,0.5,6.64015405,4.732487985602629,1.61212499279677,0.09342024900000023
mp-1185529,Lu1 Re1 O3,5,3,12.384830564691406,0,1,221,4.052,81.84,0.0,3.956277,2.614571365612231,0.4554931826587997,0.9860505966000055
mp-20702,Sm1 V1 O3,5,3,11.90114620714448,2,1,221,3.05,49.868,0.0,3.904088,2.580081398150414,0.44948457059503866,0.299045315499999
mp-3953,Ca2 C2 O6,10,3,12.29495072208524,0,5,167,3.402,20.018,0.5,9.809254915263253,4.872859138767368,2.47492306850263,0.0
mp-776023,Cd8 Si8 O24,40,3,13.249500970026428,0,2,60,2.718,37.698,0.5,9.852316,5.765030544852826,2.2126860738550382,0.026798932500000205
mp-555562,Li8 I8 O24,40,3,16.853241867026433,0,4,86,2.108,36.368,0.5,9.977056,6.120197273618554,2.35757989181007,0.14807374924999905
mp-1079918,Ca2 C2 O6,10,3,12.015381547293789,0,6,2,3.402,20.018,0.5,6.6875585584977335,3.542682596338065,1.0489735796913067,0.006686683999999055
mp-14628,Zn2 Sn2 O6,10,3,11.939662912889759,0,5,148,2.458,46.416,0.5,8.253056535951295,4.086875986994201,1.6608679975624023,0.05493058000000062
mp-4320,Cu8 Te8 O24,40,3,14.878739059413945,0,2,62,2.696,47.83,0.5,12.882924,6.235539597313979,2.6272234921150015,0.04484400274999878
mp-1193395,Lu6 Fe6 O18,30,3,11.884538065381898,12,3,185,3.3020000000000005,55.77,0.5,11.581593894396832,5.583391537750988,2.3448211819886895,0.013801381291665749
mp-31116,La4 Sc4 O12,20,3,13.366062966990754,0,2,62,3.2340000000000004,46.372,0.0,8.10225831,4.675656967076024,1.6806974606438176,0.0
mp-18717,Sr1 V1 O3,5,3,11.871933123823009,1,1,221,2.966,37.312,0.0,3.900891,2.577963451663937,0.4491155960860562,0.039101676860326506
mp-557803,Mg8 Si8 O24,40,3,10.494013007687837,0,2,33,2.7880000000000003,20.080000000000002,0.5,9.1518143,5.322483650804234,2.0494650987056513,0.012639097166668556
mp-778151,Er4 Lu4 O12,20,3,13.419272635545573,0,2,62,3.104,78.06,0.0,8.226505,4.6493509134896005,1.6159216818839013,0.09138354962499662
mp-561489,Ag4 Te4 O12,20,3,13.709001675660563,0,7,11,2.588,56.7,0.0,7.399801560000154,4.459551637918486,1.5541638855228639,0.020124158499999822
mp-1198558,Cd8 C8 O24,40,3,14.076616419571309,8,7,14,3.2659999999999996,34.482000000000006,0.5,14.99716052396962,6.510846206320891,3.0060831027387596,0.5671717884999934
mp-770415,Ho6 Er6 O18,30,3,14.886784390561697,0,3,185,2.846,76.04,0.0,12.674862,5.868811416382135,2.514404220783747,0.09294384220833507
mp-1016843,Mg1 Os1 O3,5,3,12.01758489030256,1,1,221,3.496,52.501999999999995,0.5,3.916779,2.5884684562863796,0.4509457079171026,0.6486560359999958
mp-1100876,Y2 B2 O6,10,3,12.310561187227881,0,2,40,3.596,29.544,0.0,8.411535,3.9639460070937176,1.616334232877405,0.07649623866666744
mp-572987,Ni16 Se16 O48,80,3,13.665109427363442,4,7,15,2.9400000000000004,37.132,0.5,15.810830745876803,7.714477056987977,3.231697052589278,0.06596378037500017
mp-973877,Pa1 B1 O3,5,3,9.483143901720627,1,1,221,2.722,57.962,0.0,3.619435,2.391963735273012,0.4167119662189105,1.1269523429791661
mp-554869,Sr12 Ge12 O36,60,3,15.02072549248222,0,6,2,2.6740000000000004,41.65,0.0,12.109602599424072,6.645615965400772,2.4817837054216265,0.0018847388333265158
mp-29195,Li12 P12 O36,60,3,11.717308443435616,0,7,14,2.572,17.182,0.5,16.90987642,7.173771134446005,3.4392864163417314,0.0
mp-17008,Ca6 Te6 O18,30,3,17.08704270666146,0,7,4,2.3660000000000005,43.136,0.5,11.996970987487513,5.99108516316867,2.261375340949079,0.015751788466668692
mp-1376863,Mg4 Bi4 O12,20,3,13.373456547043787,0,2,62,2.2980000000000005,56.257999999999996,0.5,8.292801,4.6415123861193965,1.6429699869516665,0.1240472681666791
mp-8557,Ba1 Pa1 O3,5,3,18.15020246705649,1,1,221,1.9400000000000002,83.26,0.5,4.49385515,2.969825751605049,0.5173832320823218,0.0
mp-1184546,Ho1 B1 O3,5,3,8.37687567261188,0,1,221,3.35,44.742000000000004,0.0,3.472834,2.2950800295137546,0.399833533270216,0.8710648649999984