id,composition,Natom,Nelem,D,Nmag,CS,SG,E,M,MR,MSVL,dmean,dstd,ehull
mp-19935,Er4 Fe4 O12,20,3,11.100355291020348,16,2,62,3.0740000000000003,54.23,0.5,7.59284986,4.3731882652809935,1.506959878082774,0.017954620499999407
mp-555021,Te4 Pb4 O12,20,3,17.129491189523346,0,4,76,2.404,76.55999999999999,0.5,11.96787127,5.678598766441251,2.293917455541245,0.0027182204999993687
mp-556925,Ti4 Mn4 O12,20,3,10.625076383403902,4,2,62,3.114,30.162,2.0,7.561347,4.3396186031093835,1.5042360741333025,0.05998980200000048
mp-770855,V4 Cr4 O12,20,3,9.947443332174393,8,7,5,3.442,30.188,0.5,9.122047010474478,4.309384626824909,1.5799432356834047,0.011546332125000447
mp-1278982,Ca4 Fe4 O12,20,3,11.367147925327071,1,2,51,2.7840000000000003,28.786,2.0,7.67000150244237,4.363686642427589,1.7155226535518147,0.05289072150000074
mp-973958,K1 Ru1 O3,5,3,12.22586389797577,0,1,221,3.0948,37.64,0.5,3.939277,2.6033366332576953,0.4535359425299615,0.10410775575000653
mp-978952,Sn1 Pb1 O3,5,3,14.06517752668259,0,1,221,2.5940000000000003,74.78,0.5,4.127671,2.7278399372106668,0.4752260776377465,0.11675427349999978
mp-1205375,La2 Mn2 O6,10,3,12.372434334359438,2,4,127,3.0380000000000003,48.368,0.5,5.567472719181187,4.082153726369309,1.497725094879749,0.16721810645238122
mp-981313,K1 Tb1 O3,5,3,18.162426350293426,3,1,221,2.5568,49.2,0.5,4.494844,2.9704923126702054,0.5174993558627997,0.2692139283750006
mp-777413,Ce4 Sc4 O12,20,3,13.166644223566838,4,2,62,3.2040000000000006,46.612,0.0,8.04918263,4.657392113059492,1.6090556010425563,0.0
mp-973486,Lu1 V1 O3,5,3,11.445469558748506,1,1,221,3.508,54.788,0.0,3.853611,2.546722834323359,0.44367306412542895,0.5639328577499985
mp-557203,Sr8 Zr8 O24,40,3,14.800000488504612,0,1,198,3.154,45.368,0.5,8.396673,6.0749399557962285,2.2735853873615333,0.054729959249996796
mp-1106094,K4 C4 O12,20,3,17.522782738975593,12,7,14,3.2207999999999997,19.822,0.5,15.344009339624556,6.31683057590941,2.991872250740112,0.0
mp-769347,Mg4 S4 O12,20,3,12.414508718509799,0,7,14,2.432,20.875999999999998,0.5,8.767642,4.480031092125481,1.7301681470054968,0.07342707442856877
mp-644369,Ba2 Bi2 O6,10,3,19.4217869126087,0,6,1,2.3760000000000003,78.856,0.5,7.9018167837251045,4.0220281357681955,1.2696725957261987,0.9469549079999986
mp-976763,Ni1 As1 O3,5,3,10.100853412660548,1,1,221,3.04,36.322,2.0,3.696375,2.4428108121764254,0.42557020477848756,1.0137320043750062
mp-1183476,Be1 Re1 O3,5,3,8.244266449491365,1,1,221,3.8299999999999996,48.64244,0.5,3.454411,2.2829048839744823,0.3977124606294167,1.3711346221666645
mp-1186216,Nb1 Bi1 O3,5,3,13.882397583497228,0,1,221,3.5100000000000002,69.978,0.0,4.109713,2.7159720946446217,0.47315854127105955,0.4201378512894687
mp-561216,Cu16 Ge16 O48,80,3,12.98444035715923,16,2,64,3.028,36.836,0.5,11.92274,6.827134390299442,2.5346900222177644,0.019538696833336644
mp-5660,Ba1 Ir1 O3,5,3,13.55646320091869,0,1,221,3.3280000000000003,75.5,0.5,4.077295,2.69454812091113,0.4694261994771374,0.1432342616250013
mp-776166,Ag4 Pd4 O12,20,3,13.37981609887045,0,2,63,2.928,52.46,0.0,7.556527729848412,4.858043698200522,1.8991151895451535,0.4392720439999973
mp-560097,Ca12 Te12 O36,60,3,17.82021607637562,0,7,14,2.3660000000000005,43.136,0.5,23.179936851556498,9.302630257456157,4.809100686407039,0.013229042933333268
mp-1184799,In1 Os1 O3,5,3,12.545074546928323,0,1,221,3.6980000000000004,70.6,0.0,3.973267,2.6257994893006766,0.45744927146991504,0.46717973299999827
mp-19115,Ca4 Fe4 O12,20,3,10.547979122587815,4,2,62,2.7840000000000003,28.786,2.0,7.487766650117953,4.39829025675092,1.5679490459361913,0.0
mp-20699,Y4 Mn4 O12,20,3,11.778254157008124,4,2,62,3.018,38.37,0.5,7.49551,4.453644302524308,1.5166498455034974,0.02309525683333291
mp-807999,V4 Cr4 O12,20,3,10.49143176900623,9,6,1,3.442,30.188,0.5,9.057977751758864,4.240893680461089,1.6576425106723385,2.6337303111250012
mp-806072,V4 Cr4 O12,20,3,10.511144277531717,10,6,1,3.442,30.188,0.5,9.032357825705061,4.232091679953889,1.6516689182294797,2.6077976841250017
mp-1181557,Cu2 Ge2 O6,10,3,15.568749930553775,6,2,51,3.028,36.836,0.5,11.702809,5.003943033675029,2.31611922963108,0.33610468133333526
mp-1184073,Cu1 Pd1 O3,5,3,10.914839108822179,0,1,221,3.0360000000000005,43.589999999999996,0.5,3.793113,2.5067417262066094,0.4367078221657552,0.7189750189999966
mp-754229,Mn2 Ag2 O6,10,3,11.763805032973549,10,5,148,2.7340000000000004,42.168,0.5,7.503580714181204,3.5146781419824,1.0055408511447663,0.0821110778333436
mp-8285,Zn2 Ge2 O6,10,3,10.348547026309927,0,5,148,2.6,37.202,0.5,8.130594603405688,3.945075962169606,1.5986975374230517,0.03523394616666309
mp-20090,Pr4 Co4 O12,20,3,10.9734010336557,0,2,62,3.178,49.566,0.5,7.59490712,4.463798354202904,1.552101089586922,0.0
mp-1184234,Fe1 Ag1 O3,5,3,11.523825704242386,5,1,221,3.0060000000000002,42.35,0.5,3.862385,2.552521277951518,0.444683230295454,0.34600824975000055
mp-1185313,Li1 Al1 O3,5,3,10.206266052920261,3,1,221,2.564,16.384,2.0,3.709189,2.4512791569053087,0.4270455033085424,0.38052575006547507
mp-1080068,Cu2 C2 O6,10,3,14.179916399797747,0,7,4,3.732,24.712,0.5,9.3238938651465,4.783051376737129,2.343012344998657,0.1293203760000008
mp-1183283,Ba1 Al1 O3,5,3,12.390240727621656,3,1,221,2.618,42.456,2.0,3.956853,2.614952024779067,0.4555594985596356,0.16936120074999383
mp-1186980,Sc1 Co1 O3,5,3,9.820600652558754,0,1,221,3.218,30.377999999999997,0.5,3.661868,2.420006288096544,0.421597352712263,0.5567382338750004
mp-772548,Sm2 Cu2 O6,10,3,11.317609099040732,0,5,167,2.6860000000000004,52.39,0.5,7.401401791282518,3.8323593456545053,1.803764989375574,0.03347527649999904
mp-1213088,Er6 Ga6 O18,30,3,12.00382118990772,0,3,185,2.7800000000000002,57.004,0.0,11.609145760000649,5.671229914920669,2.3426275236938703,0.018486276266667545
mp-676280,Na8 Ta8 O24,40,3,14.58872706109366,0,6,1,3.4025999999999996,50.378,0.5,15.98390840357026,6.651910851005286,2.919184089071521,0.09564892799999924
mp-861504,Pr4 B4 O12,20,3,11.967475526276424,0,2,62,3.4620000000000006,39.942,0.0,8.16741715,4.268898673241193,1.7080888180013747,0.0
mp-20614,Eu4 Mn4 O12,20,3,11.232541979030128,8,2,62,2.5160000000000005,50.988,0.5,7.67572013,4.5187543703505035,1.5733100717186728,0.0767746721874989
mp-7607,Ti2 Hg2 O6,10,3,11.834433484930988,0,5,167,2.664,59.294000000000004,2.0,7.734420537176612,3.9532872801776637,1.9125807967187085,0.1046338184999982
mp-559767,Li4 As4 O12,20,3,11.458000403851754,0,7,15,2.478,25.972,2.0,7.517810102231168,4.272696370681367,1.5055405146080116,0.03577491699999413
mp-510575,Gd4 Mn4 O12,20,3,11.449631946933739,8,2,62,2.972,52.048,0.5,7.62006186,4.451094948760087,1.5317719646803984,0.0
mp-849271,Ag4 I4 O12,20,3,16.598995390475487,0,2,62,2.3720000000000003,56.56,0.0,8.445084,4.90473880977538,1.859315987345261,0.027469873500000297
mp-22487,Eu4 Sc4 O12,20,3,13.066615088555377,4,2,62,2.712,48.992000000000004,0.0,8.023095,4.61111289420553,1.654823273298442,0.1810077158750012
mp-648072,Na8 P8 O24,40,3,14.96150141201187,0,4,88,2.4686,20.392,0.5,12.644876000000004,6.210657038232085,2.5982299952351697,0.05912086716666831
mp-1209736,Pu4 Cr4 O12,20,3,12.00957896736069,8,2,62,3.1,68.8,0.5,7.816719,4.523681834993195,1.648188902348831,0.08201357066667114
mp-1183211,B1 Sb1 O3,5,3,8.72808378898688,0,1,221,3.272,36.122,0.0,3.520705,2.326716374957519,0.4053450063412518,1.0143130771666673
mp-725554,Rb2 Se2 O6,10,3,21.046488441913134,2,6,2,2.2224,42.488,0.0,8.011767031085958,4.179642870821737,1.3942012509911825,0.17437212449999606
mp-1016879,Cd1 Si1 O3,5,3,9.486956602700698,0,1,221,2.718,37.698,0.5,3.61992,2.392284255578421,0.4167678051284685,0.37450626650000096
mp-22390,Sr4 Ru4 O12,20,3,12.17123952456534,4,2,62,3.2520000000000002,47.344,0.0,7.87656975,4.632391401236085,1.6719066185971434,0.0
mp-1183115,Ac1 Al1 O3,5,3,11.49028264753796,0,1,221,3.088,60.396,0.5,3.85863387,2.5500422813881607,0.444251356050484,0.0
mp-8697,Sc2 B2 O6,10,3,10.067384890530999,0,5,167,3.502,20.754,0.0,8.839779336024684,4.395439317232569,2.228492877021907,0.0
mp-1183719,Cr1 Rh1 O3,5,3,12.019020879858541,5,1,221,3.53,40.58,0.5,3.916935,2.588571551477398,0.45096366847357894,0.9724235252499973
mp-1195015,Ce8 As8 O24,40,3,14.56805267391914,0,7,14,3.0160000000000005,52.604,0.5,9.797879346328813,5.764915491267295,2.1083194842490816,0.07822965525000036
mp-755281,V4 Cr4 O12,20,3,9.948861659885637,8,6,1,3.442,30.188,0.5,9.120571795645025,4.5194957542409435,1.7790220687368261,0.012308828625002377
mp-555726,Na4 Cl4 O12,20,3,18.975116161573215,0,1,198,2.0626,21.288,0.5,7.239993,4.742248658320857,1.652625583039014,0.06845224274999939
mp-1376082,Al6 Bi6 O18,30,3,13.660856356978975,0,3,185,2.6740000000000004,56.791999999999994,0.5,11.833578,5.45202475189251,2.228571443884296,0.5176722699166678
mp-1178874,V6 H6 O18,30,3,11.395315152701045,0,7,11,2.622,19.989600000000003,0.0,8.772322,5.144169891857534,1.946987579012406,0.022129907083330735
mp-1187862,Y1 Si1 O3,5,3,10.324915821383922,0,1,221,3.3600000000000003,33.0,0.0,3.723507,2.4607414450142655,0.4286939600241134,0.7363874534166648
mp-19331,Mn2 Ni2 O6,10,3,9.451432955997518,4,5,148,3.032,32.326,2.0,7.841001930845984,3.829650110255932,1.5519617034047581,0.0
mp-768469,Tm6 Ga6 O18,30,3,11.873029723982183,0,3,185,2.6060000000000003,57.324,0.0,11.595306030002288,5.374301459917211,2.273814519816755,0.0064111949333334195
mp-976848,Ni1 Ru1 O3,5,3,10.276220024387245,5,1,221,3.7960000000000003,41.558,0.5,3.717644,2.456866784085168,0.4280189424432088,1.2007493319999973
mp-1206840,Sr2 Rh2 O6,10,3,12.655303029275242,2,4,140,3.054,47.704,0.0,7.473725724425101,3.704426496895756,1.3032404830629993,0.03039961174999206
mp-1183469,Bi1 Pt1 O3,5,3,13.490856651281934,0,1,221,3.164,90.416,0.5,4.070707,2.690194331690443,0.46866771136132646,0.5484297291249955
mp-975291,Rb1 Li1 O3,5,3,14.600553395552362,3,1,221,2.0564,28.082,0.5,4.179392,2.7620206190994296,0.48118080803207824,0.5468869129999927
mp-1184148,Er1 Be1 O3,5,3,8.726121774738576,3,1,221,2.882,44.86244000000001,0.5,3.52044117,2.3265420185200427,0.40531463112576993,0.3824533132500001
mp-1192552,K6 As6 O18,30,3,17.532589669828976,0,6,2,2.3388,32.404,2.0,11.032381223310363,5.705294697381216,2.2344168312793293,0.0052658590833303265
mp-504580,V2 Cu2 O6,10,3,10.293500469095072,0,5,148,3.3200000000000003,32.498000000000005,0.5,8.23385918848508,4.022140933199372,1.801198751832804,0.09447362799999404
mp-754184,Er2 Al2 O6,10,3,11.773135006952511,0,3,194,2.896,48.456,0.5,11.449682,4.630294378213621,2.3508219514821107,0.08564275720000047
mp-14607,K12 Sb12 O36,60,3,14.744247040421678,0,1,201,2.2968,41.78,0.5,9.59970638,6.364663264271757,2.311458631790218,0.018391050666667574
mp-557704,Tl9 N9 O27,45,3,14.739330092763167,0,5,144,2.9200000000000004,53.282,0.0,12.582814694948357,6.0064220910436115,2.3191195939420375,0.004367245666662356
mp-1075902,Eu1 Cu1 O3,5,3,11.200637912134855,1,1,221,2.6300000000000003,52.71,0.5,3.825935,2.528432690050174,0.4404866771956804,0.1708528556250002
mp-1178465,Cs2 As2 O6,10,3,21.997981958535757,0,5,162,2.3128,51.164,0.5,9.994093,3.4133018199560725,1.1093412891805159,0.10051655749999977
mp-1434307,Y1 Mn1 O3,5,3,11.612396155421397,1,1,221,3.018,38.37,0.5,3.872255,2.55904403138324,0.44581958088790297,0.3250519833333332
mp-998527,Ni2 Bi2 O6,10,3,11.353038155551554,2,5,146,2.8840000000000003,63.13399999999999,0.5,7.702323221373145,3.3715861094949653,1.1868186600355788,0.010981392250012156
mp-776439,Sm4 Tm4 O12,20,3,14.43150090268557,0,2,62,2.4720000000000004,73.46000000000001,0.0,8.403303,4.761776365686126,1.652641638213749,0.05160596737499645
mp-1216392,V2 Cr2 O6,10,3,9.96975000973038,4,5,161,3.442,30.188,0.5,6.655231577716105,3.278502695896809,1.1453767613448211,0.0075114801250038
mp-1016836,Zn1 Os1 O3,5,3,11.835340541019834,1,1,221,3.464,60.715999999999994,0.5,3.896879,2.575317210765481,0.44865458564863897,0.5631337199999953
mp-1178162,Ho2 Bi2 O6,10,3,15.765844353190255,0,5,161,2.624,84.376,0.0,8.765667641002237,4.617089607223814,2.204775327234575,0.03165500087500206
mp-1079330,Mg2 V2 O6,10,3,14.549781778487098,0,2,36,2.9240000000000004,24.65,0.5,7.2599586605374,3.984852307423208,1.7101194284240326,0.18472074199999877
mp-1097026,La1 Ga1 O3,5,3,11.987023632889505,0,1,221,3.016,51.324,0.0,3.913456,2.5862723965443726,0.4505631250378008,0.09632406714286113
mp-1643785,Sc4 Co4 O12,20,3,10.123178531029858,4,7,14,3.218,30.377999999999997,0.5,7.420654732611579,4.2117822351506335,1.4551109533144198,0.06670595037500071
mp-548231,Fe2 Bi2 O6,10,3,11.680742898715597,2,5,146,2.8520000000000003,62.565999999999995,0.5,7.793655098036587,4.189226236092584,1.8136643252008882,0.062123075000004135
mp-1187143,Sr1 Be1 O3,5,3,10.411421239301841,3,1,221,2.568,28.926440000000003,0.5,3.733877,2.4675946317505324,0.4298878765027046,0.37697198499999907
mp-1186471,Pr1 Pb1 O3,5,3,18.68180128317142,4,1,221,2.7060000000000004,79.22,0.5,4.537287,2.998541474159828,0.5223858936738749,0.585463062125001
mp-510278,Gd4 Ti4 O12,20,3,11.961540508720411,8,2,62,3.3579999999999997,50.634,0.5,7.746719,4.5080393146392455,1.5519453389359479,0.02668966949998719
mp-864911,Ac1 Mn1 O3,5,3,12.448279765957576,1,1,221,2.994,65.988,0.5,3.96302168,2.619028699413231,0.45626970962069224,0.0
mp-1248370,Al6 Mo6 O18,30,3,10.695053338373347,6,3,185,3.6020000000000003,34.186,0.5,12.040976,5.360846230769061,2.3663383973572665,0.4636322037499987
mp-560560,Cd12 Si12 O36,60,3,12.7821998749954,0,7,14,2.718,37.698,0.5,15.122593765555026,6.7399008965920215,2.9563950463866746,0.0
mp-642228,Mg16 Si16 O48,80,3,11.215973771058747,0,2,61,2.7880000000000003,20.080000000000002,0.5,18.576097,7.842672637549431,3.7687505376071573,0.20596262704167057
mp-625246,V6 H6 O18,30,3,11.955113616948314,0,7,4,2.622,19.989600000000003,0.0,8.570394,5.18233383611173,2.022298998746585,0.048549777416664774
mp-1345463,Al4 Cr4 O12,20,3,9.551014794006084,4,2,62,3.0580000000000003,25.396,2.0,7.532182,4.164373207785155,1.5026466665081606,0.1762854609999991
mp-1412082,Al2 Cu2 O6,10,3,9.700166525182578,2,3,194,2.9360000000000004,27.706,2.0,11.229472,4.543280924771758,2.3435814129106722,0.24232603127272334
mp-978489,Si1 Pb1 O3,5,3,10.531509343079305,0,1,221,2.8920000000000003,56.657999999999994,0.5,3.748178,2.477045685127134,0.43153437597814676,0.4239519391666491
mp-1183980,Ga1 Ge1 O3,5,3,10.581066882450353,0,1,221,2.8920000000000003,38.07,0.0,3.754048,2.4809249721224944,0.4322101994814574,0.6725344789166723
mp-5692,Tb4 Rh4 O12,20,3,11.47766922555557,0,2,62,3.5200000000000005,61.96,0.0,7.6000779,4.4030833114439165,1.5320736744157946,0.0
mp-984240,Cs1 Ca1 O3,5,3,20.5649488723409,3,1,221,2.0888,44.196000000000005,0.5,4.684888,3.096086046528176,0.539379458394854,0.4246967339999994
mp-31250,Bi4 B4 O12,20,3,12.967084532986297,0,7,14,3.1580000000000004,53.55799999999999,0.0,8.86880424794642,4.426552264217201,1.6216165807873657,0.0
mp-542289,Hg8 N8 O24,40,3,15.296739436287728,0,7,4,2.678,52.522000000000006,0.5,11.726849533488792,6.03207041892364,2.398206481066723,0.0
mp-1208626,Sr4 Rh4 O12,20,3,12.177428490125079,4,2,62,3.054,47.704,0.0,7.853862161481155,4.592981674201842,1.684801909505682,0.005810413749991028
mp-8074,Ta1 Sn1 O3,5,3,13.509616694057744,0,1,221,3.808,69.52000000000001,0.0,4.072593,2.691440726115187,0.4688848498838552,0.2989471735000002
mp-1020631,Zn2 Ge2 O6,10,3,9.933942065803809,0,5,161,2.6,37.202,0.5,7.657360002640357,3.8823162677542347,1.9069460622252874,0.1073189271666628
mp-18269,Fe4 Si4 O12,20,3,11.650457398590257,4,7,15,3.342,26.387999999999998,0.5,7.433959883699664,4.277951250755224,1.5494622892379184,0.018215754666670136
mp-1207629,Y4 Rh4 O12,20,3,11.408433003358589,0,2,62,3.5840000000000005,47.962,0.0,7.58046239,4.370858168022183,1.580571716190231,0.0
mp-1199261,K8 Si8 O24,40,3,16.786163351636187,16,7,14,2.6728,23.038,0.5,11.955093227854197,6.679935432282095,2.7270348083020797,0.14834659749999624
mp-1186884,Rb1 Mg1 O3,5,3,14.762018968268148,3,1,221,2.0324,31.556,0.5,4.194742,2.772164921548967,0.48294808073664663,0.40636991600000094
mp-558920,Na8 Nb8 O24,40,3,12.063244882481214,0,2,29,3.2966,32.779999999999994,0.5,15.6835549,6.539600593702361,3.207727518969842,0.0018151994999993093
mp-757083,Co2 B2 O6,10,3,11.96691120518733,8,6,2,3.6,23.548,0.5,6.515300330651894,2.961707246732975,0.9358666387843126,0.1768175734722197
mp-555118,Na12 P12 O36,60,3,13.143596989076736,0,2,62,2.4686,20.392,0.5,13.12362076,6.4903026065217215,2.683308253566973,0.008861134166666673
mp-556857,V4 Cd4 O12,20,3,13.497706760316632,4,2,62,2.854,42.268,0.5,14.28396924,5.777354385608288,2.8905744987315365,0.0
mp-1183285,Ba1 Ca1 O3,5,3,17.796183771738374,3,1,221,2.3080000000000003,45.076,2.0,4.464426,2.9503900721548946,0.5139972776134467,0.34453105399999817
mp-30058,Tl2 Sb2 O6,10,3,17.847189652307534,0,5,148,2.4859999999999998,74.84,0.0,12.550179536063734,5.179003342225396,2.5989843127461936,0.0007310490000023151
mp-3196,Nd4 Ga4 O12,20,3,11.98562171411967,0,2,62,2.8020000000000005,52.38399999999999,0.0,7.801683,4.507979061031753,1.675978057626101,0.033597412833332285
mp-1475723,Ti1 Al1 O3,5,3,11.5096802642434,0,1,221,3.2079999999999997,24.57,2.0,3.860804,2.5514764478425462,0.44450120696347206,0.9959165675000019
mp-1179620,Tl2 Sb2 O6,10,3,26.024884551350834,0,6,2,2.4859999999999998,74.84,0.0,13.558224019793597,5.852985838945257,2.6059461793736305,0.7588836660000062
mp-981250,Sm1 Pu1 O3,5,3,16.50385672366846,2,1,221,2.708,88.47999999999999,0.0,4.353633,2.877170677933946,0.5012414831667191,0.7339322471249936
mp-1504764,Y1 V1 O3,5,3,11.926101512366477,1,4,123,3.496,37.57,0.0,3.995935,2.5824156311836086,0.45065689815536353,0.35329186500000276
mp-768145,Dy6 Ho6 O18,30,3,15.183727873424317,0,3,185,2.7960000000000003,75.08,0.0,12.747755,5.9052197035979335,2.5287834418636495,0.09010367654166629
mp-1187400,Tc1 Sn1 O3,5,3,12.648775483028707,0,1,221,3.558,52.94,0.0,3.984185,2.6330148309387256,0.4587062801597184,0.3306577857499988
mp-554624,Cu16 Ge16 O48,80,3,12.885126619659994,16,2,58,3.028,36.836,0.5,11.923969,6.850473282875494,2.563924842736635,0.024748352208336044
mp-1184491,Gd1 Th1 O3,5,3,19.326993232609595,1,1,221,3.628,87.46000000000001,0.0,4.58893,3.0326706084530834,0.5283316437899684,0.7811935103333383
mp-1273769,La4 Mn4 O12,20,3,12.426798768432658,4,7,12,3.0380000000000003,48.368,0.5,7.98794838527895,5.078054898699204,2.0248249663224134,0.17586650295238115
mp-20507,Pb4 S4 O12,20,3,15.493773800130246,0,2,62,2.536,57.45399999999999,0.5,8.054018,4.702114541883552,1.7463053909204131,0.04078835300000083
mp-756315,Eu1 V1 O3,5,3,11.398863596996865,2,1,221,2.994,50.188,0.0,3.8517118311627407,3.1415594544887,1.115783032755389,0.04324243612498968
mp-1183394,Ba1 Tm1 O3,5,3,16.738023016080554,3,1,221,2.4240000000000004,70.84,0.5,4.374127,2.890714478220643,0.5036009937079196,0.07247181324999818
mp-13374,La4 Tm4 O12,20,3,15.007189636423655,0,2,62,2.938,71.16,0.0,8.468151,4.84014434280081,1.6767950967832324,0.020490914375002944
mp-1185693,Mg1 B1 O3,5,3,7.567917450012241,0,1,221,3.024,16.624000000000002,0.5,3.357238,2.2186864929693435,0.3865247609212052,1.013683423875002
mp-1183139,Ac1 Ni1 O3,5,3,11.671643559918227,0,1,221,3.2980000000000005,66.738,0.5,3.87883955,2.563388801985522,0.44657649786980563,0.0
mp-29077,Li8 Bi8 O24,40,3,11.83654847517795,0,2,56,2.322,52.78399999999999,0.5,10.77666513,5.645202043311448,2.210097253167578,0.0
mp-752435,Dy4 Tm4 O12,20,3,13.869829512379459,0,2,62,2.652,75.88,0.0,8.328938,4.691391852863559,1.6313878357473435,0.08806208974999663
mp-1040467,Rb1 Os1 O3,5,3,12.552938040978201,0,1,221,3.3644000000000007,64.734,0.0,3.974097,2.626348008586222,0.4575448308409113,0.09055916899999605
mp-1100874,Y4 B4 O12,20,3,12.414571561690426,0,2,62,3.596,29.544,0.0,8.47554,4.784370415300814,1.9693006015670906,0.036316580666667875
mp-976446,Mg1 Mn1 O3,5,3,10.426427071495052,1,1,221,2.446,25.45,2.0,3.73567,2.4687795655806313,0.4300943077704109,0.49021219800000004
mp-981550,Rb1 Tm1 O3,5,3,17.691381185763486,4,1,221,2.2144000000000004,60.474000000000004,0.0,4.455645,2.944587002460472,0.5129863055210155,0.24325029224999906
mp-754231,Lu4 Ti4 O12,20,3,11.329168346080575,4,2,62,3.4159999999999995,54.174,0.5,7.620271,4.3585387624777345,1.595937983377453,0.061941423249990635