id,composition,Natom,Nelem,D,Nmag,CS,SG,E,M,MR,MSVL,dmean,dstd,ehull
mp-1069250,Hg1 N1 Cl3,5,3,27.334975837680673,1,4,123,1.9579999999999997,64.192,0.5,8.011948,4.004069461683733,1.2061139081992145,1.1206461224999984
mp-1206560,Rb2 Fe2 Cl6,10,3,24.776650425325688,2,3,194,1.8664,49.534000000000006,0.5,8.548297316364353,4.657916378608348,1.4245020015462224,0.10309992899999987
mp-1209111,Rb2 Sr2 Cl6,10,3,34.19263512032979,0,4,127,1.3543999999999998,55.888,0.0,7.73440649,4.827917486995933,1.509589177304981,0.009470955249999413
mp-1110854,K1 Au1 Cl3,5,3,27.135182037518177,0,1,221,1.7887999999999997,68.49,2.0,5.138475,3.395846549145651,0.5916017335901089,0.06261348466666572
mp-571305,Rb4 Cu4 Cl12,20,3,26.94994997606458,4,7,5,1.7084,51.074,0.5,12.589773719913744,6.214098426667587,2.338975391032399,0.022798320499996194
mp-23055,Rb4 Cu4 Cl12,20,3,25.90643980862016,4,2,60,1.7084,51.074,0.5,11.80800118,5.852211937233458,2.3327121789585337,0.0
mp-504708,Cs2 Co2 Cl6,10,3,27.303319678961685,2,3,194,1.8787999999999996,59.636,0.5,8.887831516140222,4.779344616451303,1.4590858848990305,0.0
mp-27208,Rb4 Mg4 Cl12,20,3,25.8753717722624,0,3,194,1.3123999999999998,43.226,0.5,11.86949791,5.765648641002085,2.320021944488207,0.0
mp-1096862,Cd1 H1 Cl3,5,3,28.421293526388173,3,1,221,1.0719999999999998,43.9516,0.5,5.218407,3.448670938943463,0.6008044464123616,0.934244392999998
mp-570270,Nb4 Se4 Cl12,20,3,26.897799352953843,0,7,13,2.846,55.646,0.0,12.147426752107176,5.790856126326107,2.2528126681774028,0.0
mp-2464440,K1 Ag1 Cl3,5,3,26.975823673747833,0,1,221,1.6168,50.67,0.5,5.12884144,3.395203554579605,0.5951574184474456,0.0037957010000013724
mp-23049,K4 Mn4 Cl12,20,3,24.700429963070007,4,2,62,1.6107999999999998,40.077999999999996,2.0,9.99008665,5.861709924766171,2.036089076810522,0.01180312249999993
mp-662499,Rb6 Mg6 Cl18,30,3,25.59001540016941,0,3,194,1.3123999999999998,43.226,0.5,17.608760290000003,7.438799782543402,3.611908651456546,0.0015753619999965274
mp-570326,Cs2 Cr2 Cl6,10,3,29.236857412596045,2,3,194,1.8207999999999998,58.25,0.5,9.057097414980696,4.887364315672282,1.489054078569449,0.0798354363333349
mp-729742,Sn1 C1 Cl3,5,3,33.21962956714376,1,7,8,2.9419999999999997,47.412,0.0,8.956307828603927,4.673752006279571,1.6690941814455589,1.1648274594999997
mp-1096927,Cs1 Ca1 Cl3,5,3,32.604415981524006,0,4,99,1.3687999999999998,55.86600000000001,0.5,5.46529812058071,3.898720299009818,1.1285308905515037,0.00029149000000039393
mp-1068985,Sn1 C1 Cl3,5,3,23.955051389532994,1,5,160,2.9419999999999997,47.412,0.0,5.795992649336409,3.0495169283141217,0.8849657367427504,1.2906921874999995
mp-2353285,Tl2 Co2 Cl6,10,3,25.42104701563662,2,7,12,2.094,73.936,0.5,8.638568017859521,4.631647514593758,1.4077680005551974,0.00475221100000045
mp-1068389,Sn1 C1 Cl3,5,3,29.25717537218398,1,1,221,2.9419999999999997,47.412,0.0,5.269072,3.482153745693027,0.6066375976551609,1.6514490314999999
mp-1213256,Cs4 Eu4 Cl12,20,3,35.03647461144077,4,2,62,1.3727999999999998,78.25,0.0,11.21136964,6.532654140828409,2.407293587860622,0.0
mp-30528,Mn4 Tl4 Cl12,20,3,24.975819102372775,4,2,62,1.8,73.138,0.5,10.04233389,5.9610416958563,2.0834641309574313,0.024392236499999775
mp-1188940,Ge4 N4 Cl12,20,3,35.320189767306914,4,2,62,2.594,38.598,0.0,9.615191,6.139949213359772,2.1911703460828873,1.1721043753333333
mp-998569,In2 Ge2 Cl6,10,3,34.30649497460598,0,5,161,2.114,58.75600000000001,0.0,11.023784288426805,5.590737175242142,2.641094639168731,0.019329499750000423
mp-22977,Cs2 V2 Cl6,10,3,28.102460959632587,2,3,194,2.0628,58.038,0.0,8.864571389341817,4.800896015647881,1.4529047530503152,0.0
mp-998748,Tl2 Ag2 Cl6,10,3,26.98364452252637,0,5,161,1.8059999999999998,83.73,0.0,10.177624556442698,5.177750914448392,2.53432015594494,0.01643992600000077
mp-569526,Rb2 Cu2 Cl6,10,3,25.794474002645863,2,3,194,1.7084,51.074,0.5,8.647449243435894,4.6533158468751195,1.408341504932189,0.0508920069999963
mp-1080233,Cs1 Sr1 Cl3,5,3,36.552365463101495,0,7,8,1.3447999999999998,65.374,0.0,5.6805699179687315,4.3393292479821985,1.4618445345823796,0.015167955999999094
mp-23319,Rb2 V2 Cl6,10,3,26.303230905853486,2,3,194,2.0723999999999996,48.552,0.0,8.598436988099179,4.658626977443316,1.3985914115047458,0.0
mp-1106358,Ca4 N4 Cl12,20,3,26.775251265959202,0,2,62,2.1919999999999997,32.088,0.5,9.042313,5.5257349973012655,2.05397946114604,0.7293612780000007
mp-23004,Cs2 Mg2 Cl6,10,3,28.472980335970163,0,3,194,1.3028,52.712,0.5,8.931957415381865,4.8284917846059745,1.4645763307028195,0.0
mp-1228834,Cs1 Hg1 Cl3,5,3,31.49612221667142,0,5,160,1.1347999999999998,87.97,0.5,5.415592563626217,3.5976880397326596,0.6453829109754502,0.03399767933333564
mp-23538,K4 Fe4 Cl12,20,3,24.648470499749504,4,2,62,1.8828,40.260000000000005,2.0,14.296414,6.7158378722911705,2.9604622400154126,0.03131702783333257
mp-2456411,Cs2 Cu2 Cl6,10,3,30.13253520050113,2,7,15,1.6987999999999999,60.56,0.5,9.055148619820669,5.000921949054891,1.582343735476587,0.0027453363333336256
mp-998611,Rb2 Sn2 Cl6,10,3,35.10235235553608,0,5,161,1.6384,62.104000000000006,0.0,10.992265972733938,5.6775890900270625,2.740519394930102,0.0
mp-27865,K4 Mg4 Cl12,20,3,24.135752933824918,0,2,62,1.3287999999999998,33.952,2.0,9.91599163,5.846937037391286,2.0361808986819874,0.002808603499997453
mp-570290,Mn1 Tl1 Cl3,5,3,26.053557730328368,1,1,221,1.8,73.138,0.5,5.069273,3.3501132580633795,0.5836343846844702,0.02930777799999973
mp-570591,Cs1 Hg1 Cl3,5,3,31.541674093008233,0,1,221,1.1347999999999998,87.97,0.5,5.402792,3.5705248286605906,0.6220330182450576,0.032840399333335935
mp-29863,As4 Cl12 O4,20,3,25.134831816298902,0,7,14,1.952,39.454,0.5,11.275868846646281,5.602349261983333,2.059932092857972,0.0
mp-998195,Rb1 In1 Cl3,5,3,32.42051651682296,0,7,8,1.5143999999999997,61.324,0.0,5.4678940970850896,3.6085172372077756,0.6323765505737519,0.03647336899999809
mp-619015,Cs6 Cd6 Cl18,30,3,29.893225565483935,0,3,194,1.2328,70.33000000000001,0.5,18.575276510057993,7.845161197108551,3.8101009618820787,0.0
mp-28610,Cs2 Ag2 Cl6,10,3,27.86981311044577,0,4,139,1.5908,69.43,0.0,9.529465272835038,4.513245749718124,1.4375401182405432,0.0
mp-1212990,Fe2 N2 Cl6,10,3,34.610486539244995,4,3,186,2.6799999999999997,35.242000000000004,0.5,10.337737092174091,5.580949643837606,1.889490133276245,1.0856155186666632
mp-28408,K4 Tc4 Cl12,20,3,27.46718590935638,0,7,9,2.3968,48.69,0.5,10.113045427170691,5.397541108159688,1.8026855153868986,0.05048492899999957
mp-1975771,Rb1 Ag1 Cl3,5,3,26.323150558896696,0,1,221,1.6003999999999998,59.944,0.0,5.0891818510003075,3.367294228774461,0.5907926734328438,0.001968153999999167
mp-29845,Cs9 Hg9 Cl27,45,3,32.660980332541854,0,5,145,1.1347999999999998,87.97,0.5,16.395869315495833,8.016625242283107,3.2016309813910993,0.0
mp-998787,Ca2 Tl2 Cl6,10,3,28.51063935878464,0,2,63,1.5839999999999999,70.16600000000001,0.5,10.33872924,5.3775751255231325,1.9170071131052857,0.0
mp-998591,Li2 Sn2 Cl6,10,3,25.314696632577647,0,5,161,1.7939999999999998,46.398,0.5,9.924362461598077,4.789037797821495,1.5986445244322842,0.010201287999998865
mp-569753,Tl2 Co2 Cl6,10,3,24.36142718966972,2,3,194,2.094,73.936,0.5,8.444679632603677,4.54216721648256,1.3680537849435717,0.010600803999998298
mp-1112170,K2 In2 Cl6,10,3,33.682650816696274,0,1,225,1.5308,52.05,0.5,11.044737999999999,5.733996205295345,2.70324692251764,0.05382687146666676
mp-1213645,Cs2 Sr2 Cl6,10,3,35.63685601129984,0,4,127,1.3447999999999998,65.374,0.0,7.86750071,4.880355863035237,1.5323574921984948,0.0029529129999996684
mp-998732,Tl1 In1 Cl3,5,3,31.7709148107494,0,7,8,1.72,85.11,0.0,5.420385013941537,4.379595460440047,1.5034050522369073,0.06715695550000111
mp-1202206,Cr8 Cl24 O8,40,3,25.953884560290135,16,7,14,2.1799999999999997,34.870000000000005,0.5,14.526971999999999,7.424624066973919,3.0380538092604414,0.1453021045312486
mp-1206320,Rb2 Sc2 Cl6,10,3,27.309077017976364,0,3,194,1.7903999999999995,47.35600000000001,0.0,8.955032264556408,4.7003553485697385,1.425996211737739,0.0
mp-998420,K1 Cr1 Cl3,5,3,24.63406225874485,1,4,99,1.8467999999999996,39.489999999999995,2.0,4.97792,3.2993649314460014,0.5822195155737456,0.02269216199999846
mp-998750,K2 Ag2 Cl6,10,3,25.593481633267665,0,5,161,1.6168,50.67,0.5,9.92132922513338,5.058750138589314,2.4540487754564646,0.0
mp-1070375,Cs1 Sn1 Cl3,5,3,34.46476982881349,0,1,221,1.6287999999999996,71.59,0.0,5.56478593,3.677581207872914,0.6406836665053051,0.022686821500000676
mp-1023129,K1 Cu1 Cl3,5,3,22.09148200547263,1,1,221,1.7247999999999997,41.8,2.0,4.79805545,3.1708723664940015,0.5524082321936218,0.03075729699999208
mp-1224374,Ge1 N1 Cl3,5,3,54.09079268295636,2,5,160,2.594,38.598,0.0,6.7955163126240015,3.5445204111803834,0.9922480080909548,1.2728014838333337
mp-1539667,Cs2 Pb2 Cl6,10,3,35.69651386649454,0,4,127,1.4067999999999998,89.29,0.5,12.742403973766145,6.498299602197308,2.8748425612219317,0.0
mp-23336,Cs3 Mn3 Cl9,15,3,28.15436974440367,3,5,166,1.5848,58.838,0.5,15.818487614063681,6.409508068337241,3.8305277277710332,0.0
mp-1209174,Rb4 Sr4 Cl12,20,3,34.88257602841529,0,7,11,1.3543999999999998,55.888,0.0,11.223316,6.568658789889461,2.3367213097217476,0.0021210957500006344
mp-1224255,In8 Sn8 Cl24,40,3,27.911958851573626,0,2,42,1.972,67.97,0.0,16.512189055568438,7.376923911729234,2.950754466740476,0.047382565999996906
mp-1080000,Cd2 N2 Cl6,10,3,41.64900116707763,4,2,63,2.056,46.55200000000001,0.5,7.787770032072723,5.392374621571203,1.7745827242484449,0.5935919470000002
mp-23486,Rb2 Ni2 Cl6,10,3,24.798095497605672,2,3,194,1.8984,50.102,0.5,8.53983692691127,4.603670552190031,1.3957091387508505,0.0
mp-568544,Cs1 Cd1 Cl3,5,3,29.17944655054078,0,1,221,1.2328,70.33000000000001,0.5,5.26440167,3.4790672805425933,0.6060998942851067,0.002633955999998605
mp-1068377,Cs1 Eu1 Cl3,5,3,35.75045998883682,1,1,221,1.3727999999999998,78.25,0.0,5.6331414,3.7227541413459213,0.6485533936466719,0.010537762000002004
mp-608490,Na4 Hg4 Cl12,20,3,28.677216790309718,0,2,62,1.1965999999999997,65.988,2.0,18.240625,7.509852784048538,3.6831972702681712,0.05522432899999785
mp-1105591,Cd4 N4 Cl12,20,3,31.285860347641215,4,2,62,2.056,46.55200000000001,0.5,16.867689,7.572023780967653,3.5400727211200707,0.7655575204999998
mp-998204,Rb1 In1 Cl3,5,3,32.42069444334496,0,4,99,1.5143999999999997,61.324,0.0,5.460818455799028,3.615048851981382,0.6334479305655678,0.036464936999997644
mp-1205501,Cr2 Co2 Cl6,10,3,21.3029918067453,4,3,194,2.5379999999999994,43.456,2.0,8.051788147818595,4.298522559159932,1.2871049792705005,0.7806238539999999
mp-1209047,Rb1 Sr1 Cl3,5,3,36.96659688452493,0,1,221,1.3543999999999998,55.888,0.0,5.696304,3.764497108827924,0.6558255749918551,0.04105457525000045
mp-1205931,Ni2 N2 Cl6,10,3,19.436204865889813,4,3,194,2.7119999999999997,35.81,0.5,7.6874584498800385,4.186922716457612,1.2484723914377864,0.9842359209999998
mp-1205732,V2 N2 Cl6,10,3,27.33248581182874,4,3,194,2.886,34.260000000000005,0.0,8.942184077756508,4.840188818830087,1.4953708127097172,1.0321606413749986
mp-568270,K6 Ti6 Cl18,30,3,25.946733666801254,6,3,173,1.9967999999999997,38.664,2.0,15.4700666024501,7.022898753002736,2.9776889716217476,0.011912575666666037
mp-998613,K2 Ge2 Cl6,10,3,31.35309319788258,0,5,161,1.7967999999999997,43.616,0.5,10.514054904002284,5.399875903844241,2.5014538968212365,0.0
mp-27718,Cs1 Hg1 Br3,5,3,36.94131277416042,0,1,221,1.0268000000000002,114.64000000000001,0.5,5.695005,3.7636386431027162,0.6556760188196574,0.04152277999999887
mp-998568,K1 Ag1 Br3,5,3,30.593309201976712,0,4,99,1.5088000000000001,77.34,0.5,5.354021691672569,3.5454618741529544,0.6251492472814215,0.007928916000000896
mp-27179,Cs2 Cr2 Br6,10,3,33.85828863435895,2,3,186,1.7128,84.92,0.5,9.503906876303976,5.107485196388793,1.550594090265243,0.06670300933333007
mp-998555,In2 Sn2 Br6,10,3,39.25375734843699,0,5,161,1.864,94.64000000000001,0.0,11.737689716604768,5.962133564492984,2.888636865777535,0.020028083999997115
mp-27336,Cs4 Cu4 Br12,20,3,31.369126210455857,0,2,20,1.5908000000000002,87.22999999999999,0.5,12.73041553,6.1584787818806905,2.677950571956804,0.0
mp-1209238,Rb4 Ca4 Br12,20,3,35.225730986687154,0,2,62,1.2704,73.05,0.5,11.15646626,6.4639303051095025,2.370203265465964,8.251750000187741e-05
mp-998398,In1 Sn1 Br3,5,3,42.10866890970882,0,6,1,1.864,94.64000000000001,0.0,6.2932946448847344,4.4241660145539115,1.3197748440745352,0.030300713999997342
mp-998198,Rb1 Ca1 Br3,5,3,37.86709141674136,0,7,8,1.2704,73.05,0.5,5.745559723842619,3.804220516301489,0.6676054932918685,0.024241247500000007
mp-998153,Tl1 Ge1 Br3,5,3,34.31750117469589,0,7,8,1.8780000000000001,103.346,0.0,5.637263952164908,4.472753331368412,1.5575992723598016,0.027999738000001884
mp-570099,Rb2 V2 Br6,10,3,31.02622825941334,2,3,194,1.9644,75.22200000000001,0.0,9.121762619014946,4.915799538323674,1.477248763821582,0.00046884933333402046
mp-23348,K4 Fe4 Br12,20,3,29.200734236075185,4,2,62,1.7748000000000002,66.93,2.0,15.077003,7.126785514114937,3.1253754977255044,0.051609727333332245
mp-1096988,Ga2 Cu2 Br6,10,3,28.148495472250648,0,4,140,1.9920000000000002,74.59400000000001,0.5,9.077498495660135,4.697916114355867,1.5485663671857814,0.49721401400000476
mp-1112987,Cs1 Au1 Br3,5,3,32.77908522902862,0,1,221,1.6548000000000003,113.92,0.5,5.47254,3.616618952911426,0.6300632290983639,0.05305975899999993
mp-998746,Tl4 Ge4 Br12,20,3,30.89015525966376,0,2,62,1.8780000000000001,103.346,0.0,15.54896534,7.219205194577984,3.1579520247458577,0.0
mp-28219,Tl4 Cd4 Br12,20,3,30.618655847472674,0,2,62,1.34,111.3,0.5,15.49769506,7.225965529378235,3.169991252069254,0.0
mp-642739,Cs1 Ge1 Br3,5,3,38.3483186857149,0,7,8,1.6628,89.046,0.0,5.876619044470125,3.8716372958836685,0.6500267906019009,0.0006243899999982538
mp-505222,Cd4 In4 Br12,20,3,30.770381281442077,0,2,62,1.468,93.38,0.5,15.51440356,7.295293805660143,3.158908974041042,0.008280995999998986
mp-28532,Cr4 In4 Br12,20,3,30.852255388635065,4,7,14,2.056,81.3,0.5,15.155061,7.2009901675311685,3.1074866274647843,0.04999581583333246
mp-1221539,Mo4 Br12 O4,20,3,27.04870314920492,4,7,14,2.616,70.33000000000001,0.0,11.74337872,6.517936454229539,2.6761037817920057,0.0
mp-638685,Cs4 Eu4 Br12,20,3,40.434999344654976,4,2,62,1.2648,104.92,0.0,11.78891638,6.889976133696796,2.4226862218538643,0.0
mp-28529,K4 In4 Br12,20,3,34.86404448762484,0,5,147,1.4228,78.72,0.5,10.87592584,5.953221555718517,2.077147694466459,0.0
mp-998435,Cs4 Sc4 Br12,20,3,33.766896153352185,4,2,62,1.6728,83.51200000000001,0.0,16.90108,7.7915402645468,3.4759754402379985,0.08385182383333145
mp-29483,Mg4 In4 Br12,20,3,29.193650921927606,0,2,62,1.538,75.762,0.5,15.45483301,7.277679173341547,3.171426076493126,0.011251461499999671
mp-29314,Rb6 V6 Br18,30,3,31.11959799259976,6,3,185,1.9644,75.22200000000001,0.0,15.809332787789362,7.220994998594001,2.9894948015078127,6.267333333376257e-05
mp-28038,Nb4 Te4 Br12,20,3,32.15304985548809,0,7,13,2.684,92.042,0.0,12.813332635505708,6.145509217229253,2.3894561305148576,0.0
mp-568136,Rb6 V6 Br18,30,3,30.986300360311496,6,5,165,1.9644,75.22200000000001,0.0,15.78938160052145,7.118471451803921,2.83071712788578,0.0
mp-28558,Rb4 Ge4 Br12,20,3,35.641001748664806,0,2,33,1.6724,79.56,0.0,11.30344188,6.479820814973201,2.45298281583991,0.001473122499999313
mp-1206319,Rb2 Co2 Br6,10,3,29.840385942819324,2,3,194,1.7804000000000002,76.82000000000001,0.5,9.09726898806788,4.873231103841662,1.4742304190032194,0.01621768400000345
mp-1202918,Al16 Br48 N16,80,3,37.27552216606223,16,2,61,2.394,56.138,0.5,19.269713,9.937409497816075,3.9525073105201356,1.2987083068750014
mp-569807,Rb2 Ti2 Br6,10,3,31.561866845293157,2,3,194,1.8724,74.608,0.5,9.194540975487245,5.4138430152773225,1.879839445602387,0.004297470916664992
mp-28912,Mn4 In4 Br12,20,3,29.14942808761536,4,2,62,1.8199999999999998,81.888,0.5,15.36261815,7.240482102419185,3.145935582013803,0.00409645099999878
mp-1206561,Rb2 Sc2 Br6,10,3,31.945047060169138,0,3,194,1.6824,74.026,0.0,9.493347164926611,4.94963515917665,1.5055696361951798,0.013491091333330374
mp-27300,Rb2 Au2 Br6,10,3,34.164867601244865,0,7,12,1.6643999999999999,104.43400000000001,0.5,10.815685370633764,5.664837901043822,2.6507937324516044,0.0
mp-998299,Rb2 Se2 Br6,10,3,35.44321792908409,0,7,11,1.3943999999999999,80.828,0.0,8.72161199,5.268626883377163,1.626370647664995,0.05072469689062542
mp-540540,Pa2 Br6 O2,10,3,31.109689780514493,0,7,12,1.252,97.34,0.0,13.853345524860071,7.042427929220845,3.287699507150443,0.0
mp-1224379,In8 Sn8 Br24,40,3,31.7975605954233,0,2,42,1.864,94.64000000000001,0.0,17.25480793421167,7.699660880039402,3.078594632266753,0.06312885724999706
mp-998603,Rb2 Pb2 Br6,10,3,36.78035851927661,0,2,63,1.3084,106.474,0.5,11.22836159,5.638371198548777,2.1046380606071944,0.0
mp-1110737,Rb2 In2 Br6,10,3,37.547112615478866,0,1,225,1.4064,87.994,0.0,11.45193424,5.905501667737596,2.813792867072056,0.025192820500000046
mp-998612,K2 Ge2 Br6,10,3,34.27646286889748,0,7,11,1.6887999999999999,70.286,0.5,9.0387094313598,4.980886380303499,1.6445849911394754,0.0
mp-27400,Rb4 Cd4 Br12,20,3,32.03306309463551,0,2,62,1.1344,87.51400000000001,0.5,15.79276485,7.338184715293632,3.242536705600928,0.0
mp-1189731,P4 Br12 O4,20,3,35.66830559186834,0,2,33,1.938,57.334,0.0,10.600444,6.082502226930192,2.2682531398473946,0.0003859940000019435
mp-998308,Cs1 Sc1 Br3,5,3,33.677252859979504,1,7,6,1.6728,83.51200000000001,0.0,5.524163239419919,3.935304006900638,1.134194005307411,0.09761277833333182
mp-998391,Rb1 Tl1 Br3,5,3,39.73407353252095,0,7,8,1.2784,105.91400000000002,0.0,5.837131312864524,3.866072522028046,0.6766264667360459,0.023713999749999992
mp-29636,K4 Mn4 Br12,20,3,28.822287510330575,4,2,62,1.5028000000000001,66.748,2.0,15.20534512,7.090182212895523,3.1222624461506285,0.0
mp-998599,K2 Ca2 Br6,10,3,32.425378526995004,0,2,63,1.2868,63.775999999999996,2.0,10.754171371395872,5.460504937782329,1.9173216459442517,0.0
mp-1068340,Cs1 Ge1 Br3,5,3,36.40293868598534,0,5,160,1.6628,89.046,0.0,5.776335439298163,3.6015199132969142,0.7412446960982005,0.0
mp-1399321,Cs1 Ag1 Br3,5,3,33.19723578949629,0,2,38,1.4828000000000001,96.1,0.0,5.497825,3.9107870707654064,1.1242940292929595,0.0
mp-998344,Cs1 Ag1 Br3,5,3,33.197220672810545,0,7,6,1.4828000000000001,96.1,0.0,5.500306645717224,4.1937608228958405,1.4044778949591143,1.9793999997297362e-05
mp-998608,Tl2 Ag2 Br6,10,3,31.611502618708123,0,5,161,1.698,110.4,0.0,10.71852601654514,5.471835691579498,2.67711542182198,0.0366184177499953
mp-1194175,Cs6 Hg6 Br18,30,3,38.157992179755716,0,7,15,1.0268000000000002,114.64000000000001,0.5,19.885941223441076,9.417313566033592,4.97835120622077,0.0033698473333294565
mp-567629,Cs4 Pb4 Br12,20,3,40.67652674009662,0,2,62,1.2988,115.96000000000001,0.5,11.87891123,6.915395747589135,2.4378213817930847,0.004584386999996859
mp-1213166,Cs4 Sm4 Br12,20,3,39.02996295788497,4,2,62,1.3208,104.6,0.0,11.650269,6.767193322150194,2.5877032010523235,0.08597040783333298
mp-570223,Cs1 Ge1 Br3,5,3,33.883560298539194,0,1,221,1.6628,89.046,0.0,5.53332714,3.6567911439995284,0.6370617602586758,0.016845471999999972
mp-28765,C4 Br12 F4,20,3,32.09897868551759,0,2,62,2.374,54.14200000000001,0.0,10.229411,5.861941140831226,2.2015137264808837,0.023877444406249726
mp-569548,Cs2 Au2 Br6,10,3,34.955602409760154,0,4,139,1.6548000000000003,113.92,0.5,10.262386957927596,4.936058641304624,1.5813671571994192,0.0
mp-1112174,K1 Au1 Br3,5,3,31.727441832518657,0,1,221,1.6808,95.16,2.0,5.413378,3.5775207625844216,0.6232518031864623,0.04632947512500252
mp-998800,Rb2 In2 Br6,10,3,37.40773742733569,0,5,161,1.4064,87.994,0.0,11.424187883663702,5.813005437641762,2.8423940046378924,0.03486157150000091
mp-1209127,Rb4 Tm4 Br12,20,3,34.250953449587385,4,2,62,1.3864,98.81400000000001,0.0,11.13366,6.44369226761699,2.381962448843831,0.16264854216666524
mp-2647024,Cs1 U1 Br3,5,3,38.74257449582321,1,1,221,2.0027999999999997,122.12,0.0,5.786103,3.82384226945763,0.6661642930112396,0.285750127
mp-998157,Rb1 Sn1 Br3,5,3,41.173612880814595,0,6,1,1.5304,88.774,0.0,6.067405663678381,4.223127943033032,1.3891582620635112,0.04464382600000105
mp-1211648,K4 Ca4 Br12,20,3,33.568510945933646,0,2,62,1.2868,63.775999999999996,2.0,10.97533155,6.30358199577766,2.303005643279515,0.0054323995000000735