id,composition,Natom,Nelem,D,Nmag,CS,SG,E,M,MR,MSVL,dmean,dstd,ehull
mp-1977728,Na2 Nb2 O6,10,3,12.603267710912636,0,2,74,3.2966,32.779999999999994,0.5,7.302651930372912,3.474144070186122,1.0033079016282354,0.029408212999998185
mp-649676,Ca12 Si12 O36,60,3,19.29893894115713,0,7,14,2.854,23.234,0.5,14.899184221388042,6.999277119389171,2.923805955694931,0.3503471248333252
mp-13514,Nd4 B4 O12,20,3,12.056969784420339,0,6,2,3.4019999999999997,40.602,0.0,7.645902283108688,4.196783338954246,1.4635994426011807,0.0013575665000011838
mp-3626,Sr4 Zr4 O12,20,3,13.951373919974207,0,2,63,3.154,45.368,0.5,8.25266177,4.7694905979830455,1.7018292946501152,0.007183756499999916
mp-9834,Nd1 Ga1 O3,5,3,19.011387084822793,3,1,221,2.8020000000000005,52.38399999999999,0.0,4.563814,3.016072282699169,0.5254399941972686,1.4662541728333327
mp-1180172,Mn10 Si10 O30,50,3,12.19726894971746,10,6,2,3.0700000000000003,26.206,0.5,12.394427437373665,6.233783936559668,2.690588902609074,0.29550411996667236
mp-1178351,Eu4 V4 O12,20,3,11.395781538966585,8,2,62,2.994,50.188,0.0,7.68337572,4.544404556543631,1.581826423642247,0.029201402624989825
mp-1183287,Ba1 Au1 O3,5,3,14.941554580184203,0,1,221,2.7020000000000004,76.46000000000001,2.0,4.211679,2.783358019307131,0.48489806756383114,0.19831959500000007
mp-1369873,Y4 Ag4 O12,20,3,13.14301372820162,0,2,62,3.024,48.962,0.0,7.937536,4.570892973222436,1.567653530034125,0.07976075562500018
mp-33753,Ta4 H4 O12,20,3,15.390604786116635,0,4,141,3.18,45.9816,0.0,9.561368923312747,4.7466966499456005,1.8047676867096671,0.06756572224999147
mp-1079352,Sr2 Ru2 O6,10,3,12.454563470890516,2,2,63,3.2520000000000002,47.344,0.0,7.473878,4.728060657344266,1.7831023320985164,0.04300793899999
mp-31121,Ho4 Sc4 O12,20,3,12.430716805789674,0,2,62,2.968,51.572,0.0,7.974802,4.511672171014932,1.6248648664397454,0.036679872250001466
mp-554518,Eu4 C4 O12,20,3,12.777709579080918,4,2,62,3.406,42.402,0.0,8.414892390000738,4.334983228876611,1.7581403396508246,0.0
mp-4356,Ca4 Si4 O12,20,3,9.39946801989045,0,1,204,2.854,23.234,0.5,7.217516000000001,4.158959979264376,1.4679602904069446,0.2436905986666602
mp-20651,Tm4 Fe4 O12,20,3,11.351097781345214,4,2,62,2.9,54.55,0.5,7.672662,4.402212997628172,1.519033273981131,0.02430563525000018
mp-755321,Sr4 Cr4 O12,20,3,12.048389643811479,4,3,194,2.724,37.524,0.5,9.157297,4.450018105785858,1.7949865501274649,0.0964323934375031
mp-1225223,Eu2 B2 O6,10,3,12.879283262488732,2,2,40,3.0940000000000003,42.162,0.0,8.9696,3.9806204022967684,1.8008091312171555,0.0631793336666675
mp-1193780,Mn6 In6 O18,30,3,12.147368901876952,6,5,165,2.648,43.548,0.5,11.65488729606926,5.633776593951634,2.3011057207127306,0.01663930802083513
mp-1076534,Rb1 Ta1 O3,5,3,13.495957741835975,0,1,221,3.3504000000000005,62.874,0.0,4.07122,2.6905333562609064,0.4687267739605086,0.05666227350005926
mp-780712,Ce4 Cr4 O12,20,3,12.251243877756377,8,2,62,3.2439999999999998,48.019999999999996,0.5,7.808315,4.520907858404131,1.6713734185213394,0.06176233359999905
mp-760536,Cu3 C3 O9,15,3,12.36830544294164,3,3,174,3.732,24.712,0.5,9.922815723134484,4.463519522672067,2.0108217362077685,0.1389209366666666
mp-1181670,Fe2 Bi2 O6,10,3,51.78814859665492,6,7,9,2.8520000000000003,62.565999999999995,0.5,15.34780616288516,7.348958000013829,3.3312265603745312,1.6980956450000004
mp-1178989,Tl4 Ni4 O12,20,3,11.182057203612024,4,7,14,2.8240000000000003,62.218,0.5,9.951150950085044,4.669108246894362,1.9494393097800673,0.07557856108333372
mp-974740,Nd1 Bi1 O3,5,3,17.45458162873492,0,1,221,2.676,80.23599999999999,0.0,4.435676,2.9313901571435466,0.5106872391602644,0.826238429750001
mp-1183706,Ce1 Mn1 O3,5,3,12.074310395180706,2,1,221,3.008,48.608,0.5,3.922932,2.5925347685321123,0.4516541137119696,0.3773113410000217
mp-553898,Ge12 Pb12 O36,60,3,16.0566311337286,0,7,13,2.7359999999999998,65.566,0.5,15.207133875984574,7.026521663507282,2.878301471083336,0.013110243666675458
mp-20718,Eu4 Ni4 O12,20,3,10.751780886347886,8,2,62,2.8200000000000003,51.738,0.5,7.58382395,4.449285269913124,1.5475193762763941,0.1364184510833386
mp-1183911,Cs1 As1 O3,5,3,13.53945365113771,0,1,221,2.3128,51.164,0.5,4.075589,2.693420682476021,0.46922978467361975,0.7626517824999999
mp-22212,Na4 Sb4 O12,20,3,11.819220748687481,0,2,62,2.3326000000000002,38.558,0.5,7.796969,4.540191686219049,1.5746818020115159,0.09189561499999677
mp-753819,Mn4 Tl4 O12,20,3,12.120804638609723,4,7,14,2.5200000000000005,61.468,0.5,7.9342324779043505,4.56597698115435,1.6641281305863258,0.06195348818749835
mp-760461,Lu2 B2 O6,10,3,11.768929086573689,0,2,63,3.6079999999999997,46.762,0.0,7.966248,4.04507785877224,1.8848732947210878,0.028761409000001237
mp-1183997,Cs1 Th1 O3,5,3,19.155716678478672,1,1,221,2.9608000000000003,82.58,0.0,4.575334,3.02368546603589,0.5267663122139872,0.1465335620000019
mp-1183242,B1 Pd1 O3,5,3,8.061590577195943,4,1,221,3.5,33.042,0.0,3.428706,2.2659173077878143,0.39475299842284106,1.2187017236666673
mp-1330514,Y6 Co6 O18,30,3,12.541937863296958,6,3,185,3.3120000000000003,39.168,0.5,11.428332,5.4581042559271316,2.282355023326148,0.022017445833347082
mp-543039,Te12 Pb12 O36,60,3,17.591202012353634,0,7,15,2.404,76.55999999999999,0.5,18.809259890231516,8.595417095748862,3.9456397815612863,0.0
mp-29799,K12 Bi12 O36,60,3,17.001574975784862,0,1,201,2.1828000000000003,59.215999999999994,0.5,10.06653795,6.906293721562236,2.4093815387121857,0.0
mp-1184941,K1 Lu1 O3,5,3,16.755340511641833,3,1,221,2.6328000000000005,52.42,0.5,4.375635,2.8917110650671516,0.5037746124205249,0.2356623990833322
mp-9657,Li2 As2 O6,10,3,9.439200396968975,0,5,148,2.478,25.972,2.0,8.143916481235758,4.033249511544954,1.8441711882981568,0.0
mp-752649,Sr1 Ni1 O3,5,3,11.404827608062192,4,7,5,2.7920000000000003,38.862,0.5,3.861459220371491,3.368402847082776,0.9735812442150539,0.0699531749999931
mp-1227991,Ba2 In2 O6,10,3,15.857786982262535,6,2,38,2.444,60.02,0.5,8.649932,4.143551355708119,1.5909038552549413,0.09766280675000427
mp-1375509,Y6 V6 O18,30,3,13.14950793397772,6,3,185,3.496,37.57,0.0,12.056513,5.626146307617654,2.4042061423041305,0.08072150666666822
mp-975216,Rb1 Re1 O3,5,3,12.647604037911947,0,1,221,3.3364000000000003,63.93399999999999,0.0,3.984062,2.632933544345807,0.45869211895172723,0.14681071042647265
mp-1288734,Y4 Co4 O12,20,3,11.267997056267749,8,7,14,3.3120000000000003,39.168,0.5,7.489912685010146,4.418198651602193,1.557197038352225,0.01475983800001579
mp-755612,Dy4 Ga4 O12,20,3,11.34544279442125,0,2,62,2.73,56.044000000000004,0.0,7.63874,4.3896457665107445,1.6190153099105045,0.04817002259999903
mp-1186349,Np1 Si1 O3,5,3,10.826447646606248,1,1,221,3.432,62.617999999999995,0.0,3.782846,2.499956608731079,0.4355257642597092,0.6173401541666692
mp-21939,Fe16 Si16 O48,80,3,11.572341247367074,16,2,61,3.342,26.387999999999998,0.5,18.705614,7.957743618654667,3.8072433304371116,0.015311726541671788
mp-1445377,Y2 Mo2 O6,10,3,14.431013645546887,2,3,194,3.7980000000000005,46.572,0.0,12.629857,5.1116902897052965,2.6225778774161608,0.22783741459375406
mp-756834,Ho4 Cr4 O12,20,3,10.843497799811283,4,2,62,3.008,52.98,0.5,7.5265797,4.35302434693037,1.5001039565144938,0.0
mp-28873,Cs1 Br1 O3,5,3,19.95522401162649,0,5,160,1.9648000000000003,52.160000000000004,0.0,4.7413550944269165,2.7271226778500393,0.8001327960114614,0.10251154300000209
mp-760405,Er2 B2 O6,10,3,11.721055077696267,0,2,40,3.38,45.222,0.0,8.606045,3.851991994685996,1.7262870899532015,0.09317263099999984
mp-1212985,Er4 Sc4 O12,20,3,12.31702049812294,0,2,62,2.998,52.052,0.0,7.943644,4.4968604036894755,1.631030164159322,0.040889039374999214
mp-1101170,Y4 Lu4 O12,20,3,13.566904509487728,0,2,62,3.3200000000000003,62.38199999999999,0.0,8.218506,4.660809237775329,1.616383952642143,0.07608447049999967
mp-13109,Sr2 Hf2 O6,10,3,13.563234605846926,0,2,74,3.192,62.824,0.0,8.144690924919669,4.137426459351531,2.0183803367420734,0.0019199859999829982
mp-626218,Sb4 H4 O12,20,3,13.978341059356936,0,2,43,2.1100000000000003,34.1616,0.0,10.396181023761294,4.542386976956767,1.6257309088050491,0.0
mp-978926,Sm1 Ge1 O3,5,3,12.294958318886268,0,1,221,2.758,54.205999999999996,0.0,3.946684,2.608231672231227,0.4543887235672735,0.5082992154687433
mp-770778,V4 Cr4 O12,20,3,9.954617649018768,8,6,1,3.442,30.188,0.5,9.054645031694191,4.504166534282381,1.7622573166065914,0.012972799125002155
mp-973681,Lu1 Rh1 O3,5,3,12.084488722152091,0,1,221,3.596,65.17999999999999,0.0,3.924034,2.5932630435353303,0.45178098892502727,0.7235573884999944
mp-1183447,Be1 Pd1 O3,5,3,8.563619887998767,0,1,221,3.0020000000000002,32.68244,0.5,3.498451,2.3120094494388224,0.40278286388083046,0.8275869360000003
mp-29798,Tl1 Br1 O3,5,3,17.59423177491339,0,5,160,2.18,66.46000000000001,0.0,4.696981305174916,2.780672434161242,0.8562511891104249,0.1909071498749988
mp-982245,Pb1 Au1 O3,5,3,14.282237075194772,0,1,221,2.728,90.44,2.0,4.148796,2.7418007443277004,0.47765823632725857,0.3294854983333302
mp-8558,Ba1 Np1 O3,5,3,17.126415592188746,1,1,221,2.886,84.46000000000001,0.5,4.40770786,2.912902647264333,0.5074664685257196,0.0
mp-22955,Li2 I2 O6,10,3,13.1047417289717,0,3,173,2.108,36.368,0.5,6.677153519217574,3.731182228757391,1.1624922349617857,0.0008651204999985396
mp-1228456,Ca18 Te18 O54,90,3,17.83702917560521,0,6,2,2.3660000000000005,43.136,0.5,14.949775392351249,8.29144018894331,3.239924960276564,0.01549402560000157
mp-558400,Tm6 Fe6 O18,30,3,12.111697438729331,18,3,185,2.9,54.55,0.5,11.616928750033019,5.4003537187748325,2.271780489182721,0.009748756583332963
mp-1105718,Ni4 Bi4 O12,20,3,12.24202161870217,4,6,2,2.8840000000000003,63.13399999999999,0.5,7.852379946889388,4.457983236007969,1.6332250130063606,0.020718875250014257
mp-550807,Mn2 In2 O6,10,3,12.27676728343874,2,3,194,2.648,43.548,0.5,11.82544400009553,4.954851177347997,2.5382688894193013,0.02208583268750175
mp-12315,Dy4 B4 O12,20,3,11.002162436314881,0,6,2,3.3299999999999996,44.262,0.0,7.424199421516451,4.0242692552567645,1.3795696615725148,0.0
mp-21455,Eu4 Al4 O12,20,3,10.730412454954823,4,2,62,2.6100000000000003,45.396,0.5,7.555933,4.465937208843737,1.6133284859051928,0.11148201399999813
mp-768499,Fe2 Ni2 O6,10,3,10.191843447621245,4,5,148,3.3040000000000007,32.507999999999996,2.0,6.696183323934145,3.6808761532025573,1.4736944610927436,0.08233730316666499
mp-975322,Rb1 Fe1 O3,5,3,13.24118845013579,4,1,221,2.5864000000000003,37.864,0.5,4.045439,2.6734955542119465,0.46575856173923913,0.26684501566666974
mp-1185882,Mg1 Hg1 O3,5,3,12.546893280007309,3,1,221,1.996,54.581999999999994,2.0,3.973459,2.6259263756896223,0.4574713767701936,0.5132335699999997
mp-756048,Tb4 Er4 O12,20,3,14.173335024849544,0,2,62,3.028,74.84,0.0,8.402514,4.725884521799207,1.644152429592377,0.08843840837500139
mp-1173585,Na4 N4 O12,20,3,13.442787465578192,0,6,1,2.7666,17.0,0.5,9.16420176358301,4.692246728033573,1.8167658663347994,0.012939741000000282
mp-1070665,N1 Cl1 O3,5,3,20.720167950347452,4,5,160,2.8240000000000003,19.492,0.0,5.1046388749222995,2.7569998463459577,1.0396636698699733,1.411749977000019
mp-975387,Rb1 Ba1 O3,5,3,24.927844530348594,3,1,221,2.1104,54.153999999999996,0.5,4.995185,3.301150972729092,0.5751045019394485,0.5158273460000009
mp-4675,Na2 Ta2 O6,10,3,11.877001155706727,0,4,127,3.4025999999999996,50.378,0.5,5.477129,3.3820395617472014,1.0661568596869464,0.009338893500000722
mp-4387,Sr4 Zr4 O12,20,3,13.910998301560914,0,2,62,3.154,45.368,0.5,8.21457412,4.77412739984414,1.7816097023079476,0.0
mp-775762,Ag4 P4 O12,20,3,13.236341877762603,0,7,14,2.8360000000000003,37.374,0.0,12.205115048594665,5.335772378855002,2.396382379022366,0.04544482850000797
mp-4626,Ca4 C4 O12,20,3,11.712191586567055,0,2,62,3.402,20.018,0.5,8.034798,4.240361163863229,1.6311142995271732,0.024354049500000308
mp-1101421,Sr4 Ni4 O12,20,3,11.809481551530396,4,2,62,2.7920000000000003,38.862,0.5,7.79842,4.664437042806463,1.687358706003397,0.047980611499993664
mp-1387900,Y2 Cr2 O6,10,3,12.458936605980726,2,3,194,3.254,37.782,0.5,11.8855569,4.799538211566533,2.452456257345371,0.217492438499999
mp-1097917,Tl1 Ni1 O3,5,3,10.886834100933545,1,7,8,2.8240000000000003,62.218,0.5,3.8014707866070654,3.0582904664383825,1.045893595478718,0.3661242555833333
mp-630949,Na4 Cl4 O12,20,3,17.929844208540494,8,7,14,2.0626,21.288,0.5,9.495098456486442,5.062006749990179,2.0745355624650927,0.572840350249999
mp-19990,Ba1 Ti1 O3,5,3,17.032844978251298,0,4,123,2.91,46.634,2.0,5.035613,2.690666607166912,0.6080859194887662,1.8074598639999682
mp-1215965,Y8 Zr8 O24,40,3,14.401988120259341,0,2,24,3.684,45.626,0.5,10.490449947331424,6.290288224105268,2.473855052219723,0.12383777320833644
mp-762506,Sr2 Ni2 O6,10,3,11.850465607365829,4,1,221,2.7920000000000003,38.862,0.5,7.788401816472331,3.462669126181816,1.0826070116534532,0.04595171699999323
mp-19157,La2 Mn2 O6,10,3,11.8730205264436,2,7,15,3.0380000000000003,48.368,0.5,7.820387719605964,3.9668085567177127,1.9436227901305114,0.13813428945238115
mp-1212757,Eu4 Co4 O12,20,3,10.590823390541807,4,2,62,2.81,51.786,0.5,7.57930649,4.410187076307857,1.6248422930564907,0.1267639969999923
mp-972117,Sr4 Te4 O12,20,3,17.152466344304848,0,7,14,2.342,52.644000000000005,0.0,9.935553103024413,5.528221402282842,2.354136097034049,0.0
mp-1046804,Al4 W4 O12,20,3,12.563112141435237,4,2,62,4.018000000000001,51.75599999999999,0.5,8.690316,4.584968903929147,1.6884732320400722,0.2858516632499999
mp-1184669,Hf1 Np1 O3,5,3,13.997347453360382,1,1,221,3.7940000000000005,92.7,0.0,4.121025,2.7234478177266523,0.47446091187914297,0.35969367362500293
mp-9812,Zn2 C2 O6,10,3,9.345393807406115,0,5,167,3.3040000000000007,25.078,0.5,8.62856441647779,4.31161928228071,2.166063401577141,0.0
mp-768374,Mn6 Tl6 O18,30,3,13.039317957367997,6,3,185,2.5200000000000005,61.468,0.5,12.013444,5.6378749089888895,2.421210723274483,0.03077517818749964
mp-13658,Rb2 N2 O6,10,3,14.986925152321863,0,2,59,2.7144000000000004,29.496000000000002,0.0,5.77135798,3.8222217718568343,1.1447751976075022,0.017548982999999296
mp-1244876,Cr16 Fe16 O48,80,3,14.297376608791534,40,6,1,3.2359999999999998,31.169999999999998,2.0,11.121276495576959,7.041884488372323,2.6133424254526676,0.759128268999989
mp-3466,Pr2 Al2 O6,10,3,10.709578105965994,0,5,167,2.978,43.176,0.5,7.48927870607992,3.801297250942315,1.855371330608522,0.0
mp-973738,Ge1 B1 O3,5,3,7.911827191294952,0,1,221,3.492,26.288,0.0,3.407341,2.251797892684599,0.39229320810798063,1.3230400194166663
mp-31117,Nd4 Sc4 O12,20,3,13.017010490960923,0,2,62,3.0200000000000005,47.432,0.0,8.02978969,4.613230652496597,1.6572067839977267,0.0
mp-21280,Ba1 Pb1 O3,5,3,16.601716299463224,0,1,221,2.346,78.5,2.0,4.362221,2.8828462003728133,0.5022302348270993,0.027018664000000747
mp-20032,V2 Pb2 O6,10,3,14.562135938137564,2,4,99,3.028,61.227999999999994,0.5,7.460830063053604,3.5127198453743396,1.0528956879023057,0.022054172312498288
mp-1183712,Cr1 Ge1 O3,5,3,10.490377433475668,1,1,221,3.15,34.525999999999996,0.5,3.743292,2.4738166908751182,0.43097184213876416,0.6066275810000006
mp-1106215,Ti4 Pb4 O12,20,3,14.709995563421383,0,4,87,2.936,60.614,2.0,9.285277187284557,4.575495200418483,1.7296296644097526,0.005552316500001098
mp-540655,Fe6 S6 O18,30,3,12.832418788623444,6,5,148,2.986,27.184000000000005,0.5,9.181339114218733,5.47367965779865,2.062909982897368,0.10511972402563963
mp-1186392,Pa1 Be1 O3,5,3,9.391101837177956,1,1,221,2.224,57.60244,0.5,3.607687,2.384199874349418,0.41535939815811096,0.4520099250000005
mp-768396,Tm8 Se8 O24,40,3,15.41992898951147,0,7,14,2.536,59.174,0.0,12.416586,6.194335663769105,2.5058750906656493,0.02172009363281191
mp-1183142,Ac1 Mg1 O3,5,3,12.956750746451382,3,1,221,2.712,59.862,0.5,4.016262,2.654213449158517,0.4623993620192913,0.08274275824999933
mp-22549,Sm1 Co1 O3,5,3,10.605819156449506,0,1,221,2.866,51.46600000000001,0.5,3.756973,2.4828580069540833,0.4325469599153898,0.13055311100000733
mp-29738,Tl1 Cl1 O3,5,3,18.846592105293787,0,5,160,2.216,57.57000000000001,0.0,5.037841792445061,2.791981770935348,1.070677632192043,0.06199302655555705
mp-558192,Na8 P8 O24,40,3,12.635774675259153,0,7,14,2.4686,20.392,0.5,13.813777074652853,5.845814282508523,2.6489241598099156,0.007900110499999613
mp-978842,Sr1 Ca1 O3,5,3,16.76354407434361,3,1,221,2.2720000000000002,35.14,0.5,4.376349,2.8921829238260424,0.5038568165059361,0.4673127259999976
mp-1187779,U1 Re1 O3,5,3,12.620966064786513,2,1,221,4.276,94.44,0.0,3.981263,2.631083778706963,0.45836986512110267,1.0644196647777893
mp-1178612,Zn4 Si4 O12,20,3,13.590154149495504,0,2,72,2.7560000000000002,28.294,0.5,9.98991404905621,4.611149471602984,1.803814109651839,0.03667183750000369
mp-20129,Ba4 Tb4 O12,20,3,17.414698007600748,6,2,62,2.75,68.84,0.5,8.801637,5.154875691630405,1.856395808603523,0.09080341975000028
mp-1016821,Ba1 Si1 O3,5,3,11.297542946629182,0,1,221,2.866,42.678000000000004,0.5,3.836937,2.535703544483386,0.4417533569543555,0.5612682649999998
mp-21723,Si12 Pb12 O36,60,3,14.904446017532509,0,7,13,2.8920000000000003,56.657999999999994,0.5,14.925967492162702,6.935635031974431,2.9555084668547664,0.0
mp-1198142,Na24 Nb24 O72,120,3,12.494027482188649,0,2,59,3.2966,32.779999999999994,0.5,23.77232728,9.7994677598703,4.909240859552435,0.02836190049999665
mp-1179733,Rb12 P12 O36,60,3,21.557445670357065,12,7,14,2.4164000000000003,32.888,0.0,18.857954,8.399874889437543,3.8735715474295187,1.1787199737499998
mp-760477,Sm2 B2 O6,10,3,12.849753616135,0,2,40,3.15,41.842,0.0,8.811024,3.929071351467116,1.769322530588286,0.060820527500000665
mp-5039,K8 P8 O24,40,3,16.038649020728407,0,7,14,2.4328000000000003,23.613999999999997,0.5,14.290262868454505,6.6308451321892905,2.945995965813485,0.0
mp-1183905,Eu1 Er1 O3,5,3,15.941949707469735,3,1,221,2.5900000000000003,73.46000000000001,0.0,4.303652,2.844139903944999,0.4954870820561625,0.6107685629999988
mp-984553,B1 Os1 O3,5,3,7.912370550455108,0,1,221,4.356,49.802,0.0,3.407419,2.2518494402801075,0.3923021883862187,1.7791229256666652
mp-8189,Li2 Re2 O6,10,3,10.397122513168792,0,5,161,3.492,48.227999999999994,0.5,7.869495813965261,3.9508998139092126,1.9593664807306366,0.07505348099999853
mp-1218370,Sr1 C1 O3,5,3,14.907811553278993,0,5,155,3.378,29.526,0.0,5.567091741501461,3.399529714681344,0.6809591337288796,0.03170497750000045
mp-1016830,Mg1 Ti1 O3,5,3,11.346682732202552,0,1,221,2.832,24.035999999999998,2.0,3.842492,2.5393746584968833,0.44239291394939645,0.45547797899999765
mp-669466,Ag8 N8 O24,40,3,13.425136358167972,0,2,19,3.1340000000000003,33.982000000000006,0.0,10.226522,5.6468426647561945,2.1736046208449262,0.005029588000001084
mp-1016841,Hf1 Hg1 O3,5,3,14.014819878312775,0,1,221,2.982,85.42,0.5,4.122739,2.724580543094633,0.47465824773683873,0.2990511579999975
mp-775767,Ag4 As4 O12,20,3,15.236272611243583,0,7,15,2.742,46.164,0.5,8.024655911450674,4.549417904401182,1.5740966125220108,0.037267864499995085
mp-22688,Cu8 Se8 O24,40,3,12.742873709536472,8,2,61,2.75,38.104,0.5,12.25358662,5.899043834136871,2.38053890941408,0.016344638499998787
mp-603930,Mg4 Si4 O12,20,3,10.755842896989744,0,7,15,2.7880000000000003,20.080000000000002,0.5,7.602709501325221,4.129730839511571,1.4906962012286884,0.009410846166669984
mp-557795,La4 Mn4 O12,20,3,14.857051502052121,4,7,14,3.0380000000000003,48.368,0.5,10.413179,5.376559156535444,2.122511617125384,0.4705273064523823
mp-31120,Dy4 Sc4 O12,20,3,12.520312425361396,0,2,62,2.948,51.092,0.0,7.988247,4.523677636636476,1.628857234085185,0.025833509374997732
mp-1188853,Ca4 Tc4 O12,20,3,11.742369629600534,4,2,62,3.2980000000000005,37.215999999999994,0.5,7.74489509,4.471499437007822,1.6309061058987633,0.0
mp-5773,Ba3 Ru3 O9,15,3,13.951589291321044,4,5,166,3.2880000000000003,57.279999999999994,0.5,12.464183598568992,5.068729233497319,3.024151099849193,0.0019360621666626443
mp-21872,Pr4 Lu4 O12,20,3,14.166766818798678,0,2,62,3.186,72.78,0.0,8.282174560003241,4.747700857059986,1.6421025289319975,0.0
mp-1183415,Be1 Ge1 O3,5,3,8.61097699769975,0,1,221,2.994,25.928440000000002,0.5,3.504888,2.316263447801537,0.40352396709902644,1.3469633699999966
mp-2717324,Ca3 C3 O9,15,3,12.366866827164106,0,5,150,3.402,20.018,0.5,8.596195847326133,4.0780831575870256,1.663227038679192,0.008486503333333673