id,composition,Natom,Nelem,D,Nmag,CS,SG,E,M,MR,MSVL,dmean,dstd,ehull
mp-754661,I4 N4 O12,20,3,19.495207998439234,0,2,19,2.7660000000000005,37.782,0.0,12.096245,6.00401659748128,2.6180057994470394,0.0809387324285673
mp-1186764,Sr1 W1 O3,5,3,13.797003095896773,1,1,221,3.684,63.884,0.0,4.101269,2.7103917369974626,0.47218636858588836,0.19504557099999964
mp-1076317,Mg1 Cu1 O3,5,3,10.388885202744559,0,1,221,2.56,27.172000000000004,2.0,3.731181,2.465812935372424,0.4295774812446254,0.4982033776250008
mp-1224772,H16 N16 O48,80,3,10.546898570476458,0,7,4,2.544,12.6036,0.0,16.230303075728223,7.304352276136878,3.2503703578748215,0.0
mp-5163,La4 Rh4 O12,20,3,12.5310259403746,0,2,62,3.604,57.96,0.0,7.90193892,4.593966383619454,1.6054863175629093,0.0
mp-756909,Tl4 Ga4 O12,20,3,11.586743095127746,0,2,62,2.498,64.424,0.0,7.87435,4.46472417759697,1.5568612118082283,0.06959211999999937
mp-19281,La4 Cr4 O12,20,3,11.830883157261901,4,2,62,3.274,47.78,0.5,7.78598881,4.568201509578534,1.5868413027855204,0.0
mp-770347,Tb2 Ni2 O6,10,3,10.819253637657697,2,5,167,3.258,53.11800000000001,0.5,7.250157044118941,3.7737500000700623,1.7594721032032996,0.041731725
mp-1184042,Cu1 B1 O3,5,3,7.525534275235205,4,1,221,3.4200000000000004,24.472,0.5,3.350959,2.2145369115308653,0.38580184852303034,1.1187388422916662
mp-756246,Nd4 Zr4 O12,20,3,15.522158826074525,0,4,119,3.4900000000000007,56.68399999999999,0.5,9.999534265441888,4.880661711814657,1.7689494322742816,0.08602045297499927
mp-20940,Ti4 Cd4 O12,20,3,11.47223585230871,0,2,26,2.762,41.654,2.0,7.692163,4.1960574375008,1.4208643513399315,0.03956816749999881
mp-1184957,K1 Rb1 O3,5,3,25.03903529912226,3,1,221,1.9172,34.513999999999996,0.5,5.002601,3.3060519595021063,0.5759583191627112,0.7662700690000004
mp-641635,Ca4 C4 O12,20,3,15.322891979968109,0,2,62,3.402,20.018,0.5,10.858715,5.546510955617254,2.284857094186538,1.3777728225000008
mp-1185420,Li1 Ru1 O3,5,3,11.278279751039582,0,1,221,3.2340000000000004,31.208,0.5,3.834755,2.534261533542351,0.44150213942723043,0.2110826307916689
mp-1178219,Hf4 Ni4 O12,20,3,10.81266138982134,4,7,14,3.7359999999999998,57.038,0.5,9.878522202977088,4.903485323659366,2.148512312207433,0.09684328849999524
mp-1079050,La2 As2 O6,10,3,14.151370411239242,0,7,11,3.0460000000000003,52.364,0.5,6.422470580715523,3.6081625102679427,1.1815330048061896,0.0
mp-603907,Mg4 Si4 O12,20,3,9.722008851192811,0,7,15,2.7880000000000003,20.080000000000002,0.5,6.951074712994838,4.1097577289576686,1.4743727116024827,0.19128921066667104
mp-1016828,Cd1 Ir1 O3,5,3,12.355627894664153,1,1,221,3.18,70.52000000000001,0.5,3.953165,2.6125147487247418,0.45513489258345,0.4631984149999955
mp-1185551,Cs1 Tb1 O3,5,3,19.39059147979507,4,1,221,2.5308,67.96000000000001,0.0,4.593958,3.0359934457635886,0.5289105263410155,0.28188261887499877
mp-12867,Sr2 Sn2 O6,10,3,13.291090821475049,0,4,140,2.532,50.864,0.0,7.593822337482341,3.77057898438756,1.3337618880633757,0.006706956999988023
mp-1184206,Ga1 Si1 O3,5,3,9.149907535536443,0,1,221,3.048,29.162,0.0,3.576533,2.3636112360098176,0.41177258292435664,0.6703666545000004
mp-972021,Sr1 In1 O3,5,3,14.970820477151412,2,1,221,2.4080000000000004,50.084,0.0,4.214427,2.7851740807489107,0.48521444967406907,0.19418390049999168
mp-971733,Zn1 Ga1 O3,5,3,11.220401743835305,3,1,221,2.3920000000000003,36.62,0.5,3.828184,2.5299189790540177,0.4407456085515483,0.7339474211250003
mp-4170,Na1 Ta1 O3,5,3,12.305930988919723,0,1,221,3.4025999999999996,50.378,0.5,3.9480060938891093,2.6089985757551832,0.454508222128791,0.02775412949999989
mp-13334,Zn2 Sn2 O6,10,3,11.757007878380284,0,5,161,2.458,46.416,0.5,8.212487889678423,4.176872158361298,2.0476735687252026,0.04142365500000089
mp-4471,Sc4 Al4 O12,20,3,9.553503967873123,0,2,62,3.018,23.988,0.5,7.297695,4.165958724735959,1.4426931630178772,0.02802021737499949
mp-1384267,Al2 Sb2 O6,10,3,13.603416288565864,0,3,194,2.7880000000000003,39.356,0.5,12.703106,5.170058984178748,2.6796691247266904,0.8020277639999991
mp-868005,Ga8 Fe8 O24,40,3,10.903606433698961,17,6,1,2.978,34.714,0.5,9.53171694121359,5.367061486023878,2.045602525476275,0.03666854199999925
mp-4391,Mg2 Si2 O6,10,3,8.41979956765026,0,2,63,2.7880000000000003,20.080000000000002,0.5,6.729538,3.520707385886498,1.2819214574360198,0.26111877616667023
mp-1195746,Mg8 Si8 O24,40,3,10.913289119177378,0,7,13,2.7880000000000003,20.080000000000002,0.5,9.416648446733017,5.347877577685542,2.0085406540585375,0.021623114416669864
mp-768479,Y2 Sc2 O6,10,3,13.894105351591026,0,3,194,3.214,36.374,0.0,12.444239,5.028828161365927,2.578097870948048,0.030876317750001547
mp-1178815,V4 Ag4 O12,20,3,14.38153273119583,0,7,15,3.2120000000000006,41.368,0.0,8.10448806071353,4.710274408236412,1.8938420861511347,0.011701726000012513
mp-1196213,Li8 Nb8 O24,40,3,12.157126234575715,0,7,14,3.4,29.57,0.5,9.509342968016954,5.537429444049891,2.031582507194708,0.013330627000003759
mp-977152,Np1 Ti1 O3,5,3,12.031931509778461,1,1,221,3.4760000000000004,66.574,0.5,3.918337,2.589498086463343,0.4511250832183219,0.17949956
mp-1185941,Mg1 Re1 O3,5,3,12.070949663062647,0,1,221,3.468,51.702,0.5,3.922568,2.5922942130864035,0.4516122057468581,0.6498382660714288
mp-972822,Si1 B1 O3,5,3,7.4269289759112045,0,1,221,3.6480000000000006,17.380000000000003,0.0,3.336259,2.2048221723772365,0.38410941147044664,1.9162994509791629
mp-1186400,Pa1 Co1 O3,5,3,10.82049867022362,1,1,221,2.438,67.586,0.5,3.782153,2.4994986281709792,0.435445977941516,0.6302286234999972
mp-770843,V4 Cr4 O12,20,3,9.94893275458678,8,6,1,3.442,30.188,0.5,7.403891304403922,3.999128028568236,1.347804518064852,0.011187488625001407
mp-545712,Li1 U1 O3,5,3,15.63952370749414,1,1,221,2.996,58.588,0.5,4.276264,2.8260400892552324,0.4923338530768319,0.20903442499999692
mp-755018,Rb1 Ta1 O3,5,3,13.69912932491017,0,5,160,3.3504000000000005,62.874,0.0,4.09776242872915,2.6700792178036528,0.506745389618124,0.052566979500060285
mp-973818,Li1 Ho1 O3,5,3,9.830194089796125,4,1,221,2.5140000000000002,43.968,0.5,3.66306,2.4207940410945796,0.4217345897848261,0.4370870380892864
mp-19385,Y6 Mn6 O18,30,3,12.442467020468218,6,3,185,3.018,38.37,0.5,11.440423080000006,5.392767276051777,2.24223293810571,0.0
mp-573119,Bi4 Rh4 O12,20,3,12.582425901689692,0,2,62,3.146,71.976,0.0,7.812214,4.589510161931277,1.5798483077349248,0.06198417737499451
mp-754524,Ce1 Ti1 O3,5,3,12.257687654208208,1,1,221,3.3939999999999997,47.194,0.5,3.942692,2.6055934927277384,0.45392911753231335,0.08380945625000358
mp-7238,Nd4 B4 O12,20,3,11.712325729010127,0,2,62,3.4019999999999997,40.602,0.0,8.09798399,4.265807308938413,1.6337559976228948,0.0
mp-1077622,Eu1 Ag1 O3,5,3,13.677293653469269,1,1,221,2.5220000000000002,61.58,0.0,4.089373,2.7025300678157236,0.47081676102279074,0.40340871075000084
mp-1096944,Cs1 Nb1 O3,5,3,14.511932952706848,0,1,221,3.2348,54.762,0.0,4.170919,2.7564210963206066,0.48020529652551075,0.2512933467499989
mp-1180212,Mn10 Si10 O30,50,3,13.637609131543302,10,6,2,3.0700000000000003,26.206,0.5,13.844801204031876,6.591374118260132,2.888960486114396,0.3715762217666718
mp-17554,La4 Mn4 O12,20,3,12.754087862409538,4,2,62,3.0380000000000003,48.368,0.5,7.777432920700824,4.648829564660181,1.6395706051162786,0.12553552845238158
mp-1180932,La4 Mn4 O12,20,3,15.502428642719902,4,2,62,3.0380000000000003,48.368,0.5,12.90489,5.680403524951877,2.5732811541498326,0.6305181589523805
mp-9833,Pr1 Ga1 O3,5,3,19.507563056001338,3,1,221,2.862,51.724000000000004,0.0,4.603177,3.042085975032793,0.5299719261497072,1.4744034378571431
mp-759744,Mn8 Fe8 O24,40,3,10.960427948853473,22,6,1,3.0,31.758,2.0,9.55207388477557,5.386839098808454,2.030260756647457,0.0665825984375008
mp-22341,Pr4 Fe4 O12,20,3,12.12279208132622,16,2,62,3.156,48.95,0.5,7.82389895,4.56676425721141,1.578800760357833,0.0
mp-1186920,Sb1 Au1 O3,5,3,12.823024992216045,0,1,221,2.8720000000000003,73.36,0.5,4.002397,2.6450505336234795,0.4608030599965654,0.37600113766666254
mp-761337,Sr6 Cr6 O18,30,3,12.157698223776768,6,2,40,2.724,37.524,0.5,13.68560739635607,5.952948847398835,2.836552827659386,0.05763595893750306
mp-27818,Mn8 S8 O24,40,3,14.172101858055356,8,7,14,2.714,27.002,0.5,12.441068,6.149736075806165,2.455792872238545,0.07243686278571104
mp-1078871,La2 Ga2 O6,10,3,12.169108631106907,0,5,161,3.016,51.324,0.0,7.773720731513369,3.976808499686474,1.9178424455740848,0.03859535814286108
mp-1281591,Sr4 Ni4 O12,20,3,11.753436671759449,16,2,65,2.7920000000000003,38.862,0.5,9.963436442252439,5.187897564042209,2.1893757638426767,0.05882519349999349
mp-1106293,Eu4 Zr4 O12,20,3,13.710893952022042,4,2,62,3.182,58.24400000000001,0.5,8.165923400025937,4.718039548613806,1.7547669439669138,0.0
mp-768310,La2 Bi2 O6,10,3,17.444004834340713,0,5,161,2.89,79.176,0.0,8.86988276199331,4.61853148709855,2.169189009537871,0.035194460599999644
mp-1183701,Ce1 Ta1 O3,5,3,13.332175920403339,1,1,221,4.044,73.8,0.0,4.054684,2.679605266012987,0.4668229549740104,0.3513243196060607
mp-4853,Ca4 Si4 O12,20,3,9.393294905711766,0,4,139,2.854,23.234,0.5,7.221975999999998,4.109768961933695,1.4955471100878666,0.24371033216665872
mp-973869,La1 Cd1 O3,5,3,14.609977293424881,0,1,221,2.686,59.86,0.5,4.180291,2.7626147381810022,0.481284311495362,0.4118065005
mp-1184051,Cu1 Bi1 O3,5,3,11.413840830770882,0,1,221,2.694,64.106,0.5,3.850058,2.5443747752612618,0.44326400093850177,0.17206631006250195
mp-1017465,Ba1 V1 O3,5,3,12.632591185906389,1,1,221,3.002,47.248000000000005,0.5,3.982485,2.631891357703272,0.4585105561468346,0.11491591899998443
mp-22535,Hf1 Pb1 O3,5,3,14.35138774942023,0,1,221,3.2540000000000004,86.74,0.5,4.155481,2.74621863760947,0.47842789222498106,0.040278400312494966
mp-1187065,Sn1 Ge1 O3,5,3,11.540392636772236,0,1,221,2.958,47.866,0.0,3.864235,2.553743881178335,0.4448962240741805,0.27326926199999946
mp-1184939,K1 Li1 O3,5,3,13.273795769584973,3,1,221,2.0728,18.808,2.0,4.048757,2.6756883096209085,0.46614056895967954,0.49840937100000104
mp-734059,S8 N8 O24,40,3,15.87828364060781,8,2,61,3.114,18.816,0.0,9.319157,5.694095518844852,2.0364073740774065,1.0238355369166605
mp-981132,Tb1 Ge1 O3,5,3,12.008676947778312,0,1,221,3.14,55.90599999999999,0.0,3.915811,2.5878287374087803,0.450834260361531,0.6164286589062424
mp-1187147,Sr1 Er1 O3,5,3,16.290840873372492,4,1,221,2.5620000000000003,60.584,0.0,4.334821,2.8647384552837365,0.49907562426650115,0.2229598522499998
mp-1100778,Zn1 Cu1 O3,5,3,10.422006679358098,0,1,221,2.528,35.386,2.0,3.735142,2.4684306280110313,0.4300335181946447,0.6082727132499999
mp-1197269,Hg12 N12 O36,60,3,15.835697585470403,0,1,213,2.678,52.522000000000006,0.5,9.830965,6.5430246759657,2.3723718137976175,0.22121220099999483
mp-12631,Sr1 Tc1 O3,5,3,12.442351802652151,1,1,221,3.274,46.724000000000004,0.0,3.96240069,2.618612899767906,0.45619727178760444,0.07709823300000096
mp-977058,Np1 B1 O3,5,3,9.140125458533214,1,1,221,3.668,59.162,0.0,3.575258,2.362768631083226,0.41162578991469373,0.8432484849791653
mp-755138,Nd4 In4 O12,20,3,13.697235869532225,0,2,62,2.744,61.4,0.0,8.17509696,4.688935052259161,1.619680460121872,0.0
mp-4419,Na2 Nb2 O6,10,3,12.481392265583448,0,4,127,3.2966,32.779999999999994,0.5,5.573516,3.438000229536135,1.084769966216187,0.03085902499999804
mp-7560,Lu2 B2 O6,10,3,10.998367787860555,0,5,167,3.6079999999999997,46.762,0.0,9.239235728837334,4.58026708664183,2.335246667614103,0.0
mp-4514,Na2 Nb2 O6,10,3,12.169003756668433,0,5,161,3.2966,32.779999999999994,0.5,8.019323268237997,4.033749214443749,1.9693715653883412,0.0
mp-635067,K2 Sb2 O6,10,3,16.136158055764504,0,6,2,2.2968,41.78,0.5,7.623758865967785,3.6815238461128197,1.219245373683359,0.9125581640000009
mp-770413,La4 Ho4 O12,20,3,15.624128537031973,0,7,14,3.082,70.36,0.0,8.510658283236546,4.9928489998980865,1.7554365238460157,0.08030729149999871
mp-545999,Ag2 Sb2 O6,10,3,13.76369853909369,0,5,148,2.7,55.54,0.0,9.645439853416576,4.502272436063477,1.882180119205155,0.01676315999999911
mp-1183681,Co1 Sb1 O3,5,3,10.67189481866718,0,1,221,2.9880000000000004,45.745999999999995,0.5,3.764759,2.4880035143724615,0.4334433758943977,0.5800262838749992
mp-1272234,Co2 Ni2 O6,10,3,9.602910678797516,4,6,1,3.3260000000000005,33.124,2.0,7.215935965184879,3.2238576373450174,0.8903951098090725,0.0236176609999994
mp-756166,La4 Ho4 O12,20,3,15.327598223719955,0,2,62,3.082,70.36,0.0,8.575969,4.862502346067751,1.6882954879794247,0.03363754849999978
mp-1184946,K1 Zn1 O3,5,3,13.669007422713372,3,1,221,2.0168000000000004,30.496,2.0,4.088547,2.701984191996615,0.4707216621788837,0.3663459960000015
mp-1181854,Hf8 Pb8 O24,40,3,15.377018418871273,0,2,55,3.2540000000000004,86.74,0.5,11.475254,6.164597840146948,2.370698139232002,0.2775368393124964
mp-1435972,Y1 Co1 O3,5,3,10.852096949163801,0,1,221,3.3120000000000003,39.168,0.5,3.785831,2.5019292955592136,0.4358694325999787,0.23033052950001576
mp-1245147,Cr16 Fe16 O48,80,3,12.783955897648301,33,6,1,3.2359999999999998,31.169999999999998,2.0,10.94940299564686,6.795882712424234,2.5144724900169053,0.4584400442499881
mp-974061,K1 Si1 O3,5,3,9.992245567970063,0,1,221,2.6728,23.038,0.5,3.683079,2.43402392974196,0.4240394127341916,0.4705710442499953
mp-1179354,Ti2 Fe2 O6,10,3,16.19896577618398,2,6,2,3.386,30.344,2.0,13.9795153569935,4.307451958833756,1.8986681662376705,0.07524877899999893
mp-1279320,La4 Mn4 O12,20,3,12.409088280383125,2,4,83,3.0380000000000003,48.368,0.5,7.898594492440265,4.989344972253755,1.8467560834512826,0.17121937395238085
mp-1220387,Nb2 Ag2 O6,10,3,12.791798090285628,0,4,127,3.664,49.762,0.0,5.632712,3.46618187166805,1.0961025159134006,0.05343229728571597
mp-1078473,Mn4 C4 O12,20,3,11.159881351538463,4,6,2,3.618,22.990000000000002,0.5,8.113269553683182,4.190141441574873,1.5099387585989428,0.030299366999999577
mp-1183150,Ac1 Si1 O3,5,3,12.51580956744982,0,1,221,3.336,60.61800000000001,0.0,3.970175,2.623756089745369,0.457093284030011,0.47082051350000853
mp-755535,Zn4 Fe4 O12,20,3,11.373798370194436,4,7,15,2.6860000000000004,33.846,2.0,6.926910839307488,4.186126343182136,1.4391596282465993,0.11626695675000054
mp-1378086,V4 Zn4 O12,20,3,10.144854151189417,4,2,62,2.8920000000000003,32.864,0.5,7.643512,4.281123894125408,1.5461340152314011,0.1053277084999964
mp-19156,Ba2 Mn2 O6,10,3,13.862812636506428,2,3,194,2.524,48.048,2.0,7.012529756134814,3.8421763009519747,1.1734873550287432,0.006972870666664299
mp-1188225,Sm4 V4 O12,20,3,11.685739728002542,4,2,62,3.05,49.868,0.0,7.64646575,4.444680615756552,1.638129908038731,0.0
mp-7339,Ba4 Si4 O12,20,3,16.77323849260032,0,2,19,2.866,42.678000000000004,0.5,12.707909,5.536674519576792,2.547791434385851,0.02203185050000034
mp-755559,Li2 Nb2 O6,10,3,12.501378887896589,0,7,12,3.4,29.57,0.5,6.888198684542136,3.92894867179505,1.319804921312552,0.055166170000003234
mp-21094,In2 Fe2 O6,10,3,12.35642945736485,4,3,194,2.9200000000000004,43.730000000000004,0.5,12.360357,4.9506942295135445,2.567017929896618,0.04748336799999908
mp-1187481,Tl1 Ga1 O3,5,3,11.944977701371485,0,1,221,2.498,64.424,0.0,3.908875,2.5832449666081296,0.45003570638896506,0.43010489099999916
mp-1183426,Be1 Cu1 O3,5,3,8.2975205420413,0,1,221,2.922,24.11244,2.0,3.461833,2.287809835947151,0.398566968643313,0.8452511658750002
mp-1338333,Eu4 Cu4 O12,20,3,14.051142459859857,4,7,15,2.6300000000000003,52.71,0.5,10.842515316781187,4.883342673941261,1.9403748662302787,0.17514463812499947
mp-554874,Cu4 Ge4 O12,20,3,10.62945875817117,4,7,14,3.028,36.836,0.5,6.855736,4.179268921714284,1.4556561728612785,0.09287252983333616
mp-676262,Ta8 Tl8 O24,40,3,15.13040273560705,0,7,15,3.556,86.66,0.0,13.676097657952052,6.541846138457141,2.918796266630576,0.0
mp-984454,K1 Tl1 O3,5,3,17.160775060113583,3,1,221,2.1228000000000002,58.3,0.5,4.410647,2.9148493267846236,0.5078056060317533,0.33311766899999995
mp-1080052,Li2 I2 O6,10,3,9.965345359511932,0,3,194,2.108,36.368,0.5,6.979532839040876,3.3666194350800063,1.0713268456365934,0.8675189934999992
mp-685257,Cd8 Pb8 O24,40,3,14.427420395994114,0,2,73,2.198,73.52000000000001,2.0,10.58945150177508,6.1600460821441025,2.4103652960708453,0.0
mp-977100,Ni1 Mo1 O3,5,3,12.117816040470212,2,1,221,3.8120000000000003,40.528,0.5,3.927638,2.5956448067944917,0.452195923832341,0.9362926199999997
mp-18814,Mn2 C2 O6,10,3,10.217288915450139,2,5,167,3.618,22.990000000000002,0.5,7.10092202287353,3.4810005613797683,1.1087666909422458,0.0
mp-998845,Tl2 Ni2 O6,10,3,10.931815844005023,2,5,161,2.8240000000000003,62.218,0.5,7.619594845581159,3.8922834330301233,1.8803017572062473,0.10253182658333326
mp-1421498,Al1 Fe1 O3,5,3,10.983265658300237,1,1,221,3.0940000000000003,26.165999999999997,2.0,3.801023,2.5119691810845146,0.4376185144845264,1.4042949875000144
mp-1185009,K1 Os1 O3,5,3,12.150434951227972,0,1,221,3.3808,55.459999999999994,0.5,3.931159,2.597971718125099,0.45260130280255506,0.03862509242856493
mp-1421511,Al1 Sb1 O3,5,3,13.303304318041839,0,1,221,2.7880000000000003,39.356,0.5,4.051755,2.677669587714962,0.46648573401298876,1.3185118979999988
mp-1178374,Cu2 C2 O6,10,3,11.97354338574424,2,6,2,3.732,24.712,0.5,7.079080469563886,3.7317447623264584,1.270151937186867,0.08511432700000032
mp-18983,Er4 Ni4 O12,20,3,10.288988962756848,4,2,62,3.1060000000000003,54.798,0.5,7.3320099,4.282871251926443,1.4704418590392618,0.0
mp-558637,Ag8 Te8 O24,40,3,14.37065428379251,0,7,14,2.588,56.7,0.0,11.826693,6.270702956701755,2.502570139401015,0.02047434975000062
mp-1183543,Ca1 In1 O3,5,3,14.426925894194525,0,1,221,2.432,40.576,0.5,4.162759,2.7510284247904293,0.4792658212636683,0.3578972494999988
mp-1183134,Al1 Sb1 O3,5,3,10.58031434069267,0,1,221,2.7880000000000003,39.356,0.5,3.753959,2.4808661549942848,0.43219995275372397,0.3195995259999993
mp-1369676,Y6 Ag6 O18,30,3,13.692704607139458,0,3,185,3.024,48.962,0.0,11.477625730000003,5.482071886717317,2.232273596658273,0.010654450291665896
mp-1179263,Ti4 Cd4 O12,20,3,12.817326420461033,0,2,26,2.762,41.654,2.0,9.41505,4.730917827076631,1.8237085280746212,0.22006614350000042
mp-1016850,Ba1 Rh1 O3,5,3,13.728348733583047,2,1,221,3.0900000000000003,57.64000000000001,0.5,4.094455,2.705888591923121,0.47140186068954115,0.09833617129629513
mp-8110,Al2 B2 O6,10,3,8.146986382228382,0,5,167,3.4,17.157999999999998,0.5,8.026852211646043,3.999739514710634,2.0198509020616235,0.030454673153858636
mp-19063,Er4 Cr4 O12,20,3,10.746277133539783,4,2,62,3.0380000000000003,53.46,0.5,7.50302878,4.33449473125155,1.4934053836361,0.0
mp-1343733,Al4 Ag4 O12,20,3,11.883877866265156,0,2,62,2.8280000000000003,36.576,0.5,9.496944,4.606340671662756,1.7932363876882753,0.21734745059091054
mp-1016872,Ca1 Ir1 O3,5,3,12.358534840123811,0,1,221,3.3160000000000003,56.056,0.5,3.953475,2.6127196173735596,0.4551705834328582,0.3065528339999988
mp-1272996,La4 Mn4 O12,20,3,12.500905427404131,2,2,55,3.0380000000000003,48.368,0.5,7.882481000014049,4.718632564608398,1.698453874215036,0.17544339095238115
mp-562987,V1 Cu1 O3,5,3,16.00853976180015,0,6,1,3.3200000000000003,32.498000000000005,0.5,6.225714835059708,3.199250472617811,1.0479012365154319,0.1065993159999934
mp-23548,Ag2 Bi2 O6,10,3,15.463007543874294,0,5,148,2.5860000000000003,72.976,0.0,9.263122784244864,4.65831164895433,2.0723960292224937,0.049876170999993974
mp-770849,V4 Cr4 O12,20,3,9.948818545706553,8,6,1,3.442,30.188,0.5,9.052978673837103,4.501010255775621,1.7626593087965503,0.011128841125001898
mp-1094130,Li1 N1 O3,5,3,9.879856071303909,1,5,166,2.87,13.790000000000001,0.5,5.812982642073319,2.807255372201245,1.0009967706210647,2.160649705999999
mp-976229,K1 Ag1 O3,5,3,14.7397432654152,3,1,221,2.3368,39.0,0.5,4.192631,2.7707698321371774,0.482705037565354,0.32692112849999866
mp-510624,Sr1 Fe1 O3,5,3,11.225940424961015,1,1,221,2.7600000000000002,38.294,0.5,3.82881691,2.530330127768535,0.44081723613899443,0.0
mp-866036,Eu1 Ru1 O3,5,3,12.653505708319722,2,1,221,3.28,60.220000000000006,0.0,3.9853474567160783,3.045940156973714,1.0214488973356133,0.2182072527499983
mp-1020622,Sr2 Zr2 O6,10,3,13.996387922066543,0,4,127,3.154,45.368,0.5,5.78296588,3.572452029598165,1.1257480755736908,0.017242587000000142
mp-1186557,Pm1 Er1 O3,5,3,15.531011592567532,0,1,221,2.218,72.06,0.0,4.266351,2.8194889185593195,0.4911925518181747,0.6350763567499982