id,composition,Natom,Nelem,D,Nmag,CS,SG,E,M,MR,MSVL,dmean,dstd,ehull
mp-601267,Nd4 Fe4 O12,20,3,14.08258380276597,4,2,62,3.096,49.61,0.5,12.14826,5.43807899300741,2.4507015235170426,0.6436985989999995
mp-1216067,Y2 B2 O6,10,3,12.523366719974508,0,2,63,3.596,29.544,0.0,8.298747,4.065218788105161,1.6947065851236705,0.049742556666666715
mp-19853,Tb4 Fe4 O12,20,3,11.392230357132764,16,2,62,3.2260000000000004,52.55,0.5,7.63675994,4.42424437486751,1.523221374916341,6.255587500092474e-05
mp-12958,Ba3 Si3 O9,15,3,12.293592943589877,0,5,166,2.866,42.678000000000004,0.5,11.671328398502103,4.747084168865015,2.8599473938696502,0.2947010163333319
mp-1020123,Mg16 Si16 O48,80,3,10.920468596700028,0,7,13,2.7880000000000003,20.080000000000002,0.5,18.80971859762226,7.925243344249261,3.809343929882938,0.02065747466667034
mp-1183925,Cs1 Cd1 O3,5,3,18.727937560946987,3,1,221,1.9528000000000003,58.660000000000004,0.5,4.541019,3.001007828344954,0.5228155654480411,0.4332168319999994
mp-1368210,Ca4 Ni4 O12,20,3,10.965528504263448,16,2,62,2.8160000000000003,29.353999999999996,2.0,7.553309,4.401399242185711,1.6104680304836068,0.05580526474999914
mp-23054,Na2 Bi2 O6,10,3,14.340569727537376,0,5,148,2.2186,55.99400000000001,0.5,9.138313452750939,4.529867735872995,2.007097952728071,0.0
mp-10791,Er12 B12 O36,60,3,10.196141141852673,0,6,2,3.38,45.222,0.0,10.337638175987252,5.7156372764687235,2.0989022925273444,0.06219520666666689
mp-1186334,Np1 Mo1 O3,5,3,13.050233969360487,2,1,221,3.87,76.19,0.0,4.025898,2.6605815598037124,0.4635087717770259,0.6744095275000053
mp-1020118,Mg16 Si16 O48,80,3,10.63994188180526,0,2,29,2.7880000000000003,20.080000000000002,0.5,18.53411,7.829250480076657,3.758341250940028,0.018486247291669144
mp-1183696,Cr1 Cu1 O3,5,3,10.120557598152526,5,1,221,3.0780000000000003,32.71,2.0,3.698777,2.44439821377146,0.4258467512955152,1.5534033069374997
mp-5777,Ba1 Ti1 O3,5,3,13.114621483342678,0,2,38,2.91,46.634,2.0,4.066344161183788,3.0229509993599284,1.0462344496736473,0.0
mp-1016928,Mg1 Si1 O3,5,3,8.776612053725561,0,1,221,2.7880000000000003,20.080000000000002,0.5,3.527218,2.331020599182525,0.4060948595741415,0.4672552331666697
mp-2626703,Ba2 C2 O6,10,3,16.695671010843782,0,2,44,3.414,39.462,0.5,7.29521311,4.166553122836053,1.3661977048612568,0.04385683600000245
mp-1106337,Mn4 Pb4 O12,20,3,15.43046274346465,4,7,13,2.55,62.028,2.0,10.370960621075083,5.5563887910901535,2.242482619589737,0.0769999478846275
mp-18001,Tl4 Ni4 O12,20,3,11.259568878448576,4,2,62,2.8240000000000003,62.218,0.5,7.747435,4.420736477984591,1.5375204526472714,0.07424532508333392
mp-19271,Ba4 Cr4 O12,20,3,13.53370495827564,4,3,194,2.7600000000000002,47.46,2.0,9.452074,4.60549901733748,1.8588545955268265,0.29483622362500217
mp-1016842,Ti1 Hg1 O3,5,3,12.059358079132767,0,1,221,2.664,59.294000000000004,2.0,3.921312,2.5914641646253864,0.4514676002408685,0.2360412915000012
mp-1212778,Gd4 In4 O12,20,3,13.657013047995767,4,2,62,2.8920000000000003,64.02000000000001,0.0,8.215895,4.643896356551491,1.6822735205981456,0.05223579216666607
mp-12725,Nb1 Ag1 O3,5,3,13.03164914763482,0,1,221,3.664,49.762,0.0,4.023986,2.6593179828471305,0.46328863982841756,0.07085392228571585
mp-752790,Li2 Fe2 O6,10,3,10.83022062613327,2,7,12,2.742,22.157999999999998,2.0,9.308259744521767,5.185791343613382,2.481748261857192,0.1723008051000008
mp-504715,Ba1 Ti1 O3,5,3,20.097834696934743,0,1,221,2.91,46.634,2.0,4.649145,3.0724646913194595,0.5352643034580857,3.0774920879999685
mp-1185344,Li1 Eu1 O3,5,3,10.660817881135266,4,1,221,2.258,41.388,0.5,3.763456,2.4871424051808164,0.4332933591951109,0.40104815021428575
mp-755834,Ag2 Sn2 O6,10,3,13.459491336386625,0,2,65,2.778,54.92,0.0,7.660417272353902,3.823941309927661,1.2462262761337641,0.09166997599999416
mp-3323,Sr1 Zr1 O3,5,3,14.792149481081129,0,1,221,3.154,45.368,0.5,4.197594,2.7740497131180923,0.48327643655120234,0.054908911499998325
mp-7588,Cd16 Ge16 O48,80,3,12.456124277059827,0,4,88,2.5620000000000003,46.606,0.5,12.638730000000004,7.118727413836511,2.858551229516322,0.016826052749998155
mp-613384,Cs1 I1 O3,5,3,19.344712869084212,0,1,221,1.9428,61.56,0.0,4.590332,3.033597143439027,0.5284930585347116,1.9664208049999994
mp-1184471,Gd1 Cd1 O3,5,3,14.175418590974811,1,1,221,2.62,63.540000000000006,0.5,4.138427,2.7349482184580425,0.4764644349804395,0.6748930346250042
mp-1020361,Mg16 Si16 O48,80,3,11.09794756711416,0,7,13,2.7880000000000003,20.080000000000002,0.5,18.641781698088074,7.884536186654604,3.7742701534282133,0.010514179916670585
mp-556711,Mn8 Bi8 O24,40,3,13.869550743982433,8,7,14,2.58,62.38399999999999,0.5,13.164672051300414,6.035445878939176,2.515170658245127,0.09786727160001263
mp-1369528,Y4 Bi4 O12,20,3,15.690537325719617,0,2,62,2.87,69.178,0.0,8.667586,4.869099083944899,1.6961289941435995,0.16573472787500076
mp-22590,La4 Fe4 O12,20,3,12.59680508442825,4,2,62,3.31,48.55,0.5,7.944671,4.631176175417769,1.605194740708982,0.027772022000000618
mp-975292,Rb1 Mo1 O3,5,3,13.314773048437536,1,1,221,3.0944000000000003,45.884,0.0,4.052919,2.678438836447943,0.466619747395928,0.19331893499999708
mp-558285,Ga4 Bi4 O12,20,3,13.904318828475885,0,2,54,2.5580000000000003,65.34,0.0,9.93184812,4.798538437151699,1.90943262520314,0.0
mp-756124,Tb4 Cr4 O12,20,3,11.02208283843494,4,2,62,3.19,51.779999999999994,0.5,7.56498891,4.386992808898131,1.512131702442148,0.0
mp-545379,In1 Bi1 O3,5,3,14.531356178700538,0,1,221,2.5,74.356,0.0,4.172779,2.7576503082135155,0.48041944162196,0.4960260630000013
mp-690546,Ti6 Ni6 O18,30,3,10.017909632661942,6,6,1,3.418,30.912,2.0,12.476368394228114,5.451372542059283,2.4970093292927564,0.018407698333332334
mp-1213826,Ce4 Rh4 O12,20,3,12.599516976833637,8,2,62,3.5740000000000003,58.2,0.0,7.72623,4.498767895533502,1.6181115732541758,0.16923569100000435
mp-977455,Pa1 Ag1 O3,5,3,16.068063851247125,0,1,221,2.15,77.38,0.0,4.3149707,2.8516257580734203,0.4967912176275684,0.0
mp-18407,Ba6 Si6 O18,30,3,11.674065866344657,0,3,194,2.866,42.678000000000004,0.5,13.280251,5.642093210326051,2.7264690590166345,0.40856721899999915
mp-20977,Cu4 Te4 O12,20,3,12.721850013123616,4,2,62,2.696,47.83,0.5,7.200504,4.58853728016952,1.6084008007484045,0.05940026699999912
mp-1187529,Tl1 Si1 O3,5,3,10.170094841578939,0,1,221,2.862,56.098,0.0,3.704802,2.44837993509123,0.4265404202235299,0.5340375676250062
mp-1202188,Ag8 I8 O24,40,3,14.741300801152178,0,2,61,2.3720000000000003,56.56,0.0,17.24873905,7.0730757916653575,3.489367553864743,0.010943250000000404
mp-546910,Ca1 Sn1 O3,5,3,16.46181432721623,3,1,221,2.556,41.356,0.5,4.349933,2.874725471480311,0.5008154956092661,1.4497704485000078
mp-20947,Ca4 Ru4 O12,20,3,11.38716545964491,4,2,62,3.2760000000000007,37.836,0.5,7.67012603,4.4618303941010575,1.5420717543393911,0.0
mp-4346,Sr1 Ru1 O3,5,3,12.678228209399283,1,1,221,3.2520000000000002,47.344,0.0,3.987275,2.6350569087608147,0.45906203733607764,0.04133899799998808
mp-984082,Cs1 Gd1 O3,5,3,18.782875657401007,4,1,221,2.5488,67.64000000000001,0.0,4.545455,3.0039394326228783,0.5233262899898955,0.2189109054999996
mp-1181841,Cr2 Bi2 O6,10,3,45.50453581219345,8,7,9,2.816,61.79600000000001,0.5,15.211181426564814,7.276137946132813,3.4640080731034972,1.9469446960000019
mp-19373,Li4 V4 O12,20,3,11.59107176088388,0,7,15,2.948,21.176,0.5,7.842159045947709,4.208802446925391,1.4138531608489917,0.0
mp-547792,K2 Sb2 O6,10,3,15.364624010469555,0,5,148,2.2968,41.78,0.5,10.546654705436858,4.829125928604471,2.074304091500406,0.0
mp-1283849,Sr2 Co2 O6,10,3,11.293253836834433,6,4,127,2.782,38.910000000000004,0.5,5.355499120362288,3.30138314471571,1.0290376851302192,0.018480839629032353
mp-753856,Hf4 Fe4 O12,20,3,11.779476339924226,4,2,62,3.7040000000000006,56.470000000000006,0.5,7.875288,4.488268088612564,1.5606601786425016,0.06265258549999508
mp-975138,Rb1 W1 O3,5,3,13.367758384856028,1,1,221,3.5103999999999997,63.45399999999999,0.0,4.058288,2.681987029272149,0.4672378898813239,0.15323820550000544
mp-1378752,Al4 Co4 O12,20,3,8.567660630659024,0,2,62,3.116,26.782,2.0,7.300502,3.9739290152108375,1.4699666685594872,0.2123607243181791
mp-1016881,Cd1 Sn1 O3,5,3,13.358975370350379,0,1,221,2.4200000000000004,55.82000000000001,0.5,4.057399,2.6813995188566677,0.4671355377357629,0.34630721799999975
mp-17097,Sr6 Ir6 O18,30,3,12.808145565564182,6,2,63,3.2920000000000003,65.564,0.0,14.37888941,6.0913396281674785,2.987656330098218,0.019301459999994997
mp-557189,Li20 P20 O60,100,3,12.121365465148035,0,7,13,2.572,17.182,0.5,21.35486041359601,9.020531236695971,4.473058776543756,0.002511032333332608
mp-977408,Nb1 Tl1 O3,5,3,13.870625385267605,0,1,221,3.45,69.062,0.0,4.108551,2.715204167644859,0.4730247581516649,0.09067409724999997
mp-1187483,Tl1 Cu1 O3,5,3,11.350270943353813,0,1,221,2.6340000000000003,63.19,0.5,3.842897,2.5396423094735647,0.44243954231717175,0.31012881212500076
mp-1011260,Eu2 Fe2 O6,10,3,11.922227858254995,4,2,74,2.7880000000000003,51.17,0.5,7.20943026152587,4.194848367471749,1.6107429262454251,0.16293005300000019
mp-975346,Rb1 Mn1 O3,5,3,13.180656283825991,4,1,221,2.3144,37.682,0.5,4.039265,2.669415363767423,0.46504773817715406,0.3796362390833359
mp-505766,Sr2 Co2 O6,10,3,11.728063713577294,2,1,221,2.782,38.910000000000004,0.5,7.178659920166522,3.512039865268906,1.190745832197137,0.08204866262903199
mp-973471,K1 Re1 O3,5,3,12.223824958841318,0,1,221,3.3528,54.65999999999999,0.5,3.939058,2.6031919034703046,0.4535107286718312,0.03743742071428002
mp-1259818,Al4 Fe4 O12,20,3,9.895436405618637,4,7,14,3.0940000000000003,26.165999999999997,2.0,7.94438757025461,4.249677863833275,1.5768906093068022,0.21062628850001452
mp-1273854,Sr4 Co4 O12,20,3,11.609170342754044,4,4,123,2.782,38.910000000000004,0.5,15.37347465080313,6.517761749780342,3.2034343015562854,0.035509485629032334
mp-1078470,Ti2 Zn2 O6,10,3,10.648434781971151,0,5,161,2.8,32.25,2.0,8.055018130833082,4.037678040467882,2.0059326136709887,0.05537411550000826
mp-1184207,Er1 Zn1 O3,5,3,11.214405989091686,0,1,221,2.4880000000000004,56.136,0.5,3.827502,2.5294682680266187,0.4406670886828504,0.4603009662499984
mp-630329,Pb8 Se8 O24,40,3,15.964271843548318,0,7,14,2.458,66.83399999999999,0.5,10.022978177550529,5.870734423864182,2.093452395950822,0.0
mp-1199593,Na16 Nb16 O48,80,3,12.529845046918254,0,2,59,3.2966,32.779999999999994,0.5,15.940201,7.3191840166677045,3.208149449888672,0.03270367687499842
mp-849295,Fe4 B4 O12,20,3,11.75563617144586,4,7,15,3.5780000000000003,22.932,0.5,8.657854000880217,4.451288545756396,1.8017077019924148,0.10265242550000231
mp-1186757,Sr1 Zn1 O3,5,3,12.609576185689356,0,1,221,2.1740000000000004,40.2,0.5,3.980065,2.630292060509273,0.4582319372579057,0.16797229800000046
mp-22103,Dy4 Mn4 O12,20,3,11.727839929268283,4,2,62,2.7520000000000002,53.088,0.5,7.499174,4.444110533069575,1.5144033420542224,0.02230257116666401
mp-18961,Sc4 Cr4 O12,20,3,10.394443607047315,4,2,62,3.16,28.992,0.5,7.5539680000014,4.27068733130209,1.484873533502797,0.03684691787499972
mp-1183923,Cs1 Ac1 O3,5,3,23.104202572986388,3,1,221,2.5708,81.58,0.0,4.870277,3.218597009113939,0.5607225010796789,0.2195593099999975
mp-757501,Ba6 Mn6 O18,30,3,13.140478131043261,6,3,187,2.524,48.048,2.0,14.053766150000005,6.045984932832761,2.7651010304605608,0.005214321999998717
mp-768293,Lu8 Se8 O24,40,3,15.1600446793858,0,7,14,2.938,60.394000000000005,0.0,12.428271,6.172569717673154,2.5047561780434284,0.037578519507814434
mp-975299,Rb1 In1 O3,5,3,16.51774640690808,3,1,221,2.2344,49.653999999999996,0.0,4.354854,2.877977596063644,0.5013820590606785,0.2932204476666742
mp-552588,Li2 Nb2 O6,10,3,11.144215867790756,0,5,167,3.4,29.57,0.5,8.026957601861227,4.057575668329581,1.995405033971414,0.03300803200000324
mp-978862,Sr1 Al1 O3,5,3,11.287158226580564,3,1,221,2.582,32.52,0.5,3.835761,2.5349263653510965,0.4416179619901489,0.05084952225000183
mp-971975,Sr1 Hg1 O3,5,3,15.203740348729522,0,1,221,2.0380000000000003,67.244,0.5,4.236171,2.7995439642969715,0.4877178749306254,0.2738770704999993
mp-1187310,Tb1 Be1 O3,5,3,9.198807089539013,3,1,221,3.034,43.18244,0.5,3.582893,2.3678143476436313,0.4125048209960867,0.332207850125001
mp-647158,Sr24 Te24 O72,120,3,18.86128694912605,0,7,9,2.342,52.644000000000005,0.0,26.79678137355289,11.481034268201102,5.619513839083481,0.006218151916667303
mp-1184557,Ge1 Pd1 O3,5,3,10.69670331228745,4,1,221,3.108,45.406,0.0,3.767674,2.4899299405379596,0.43377898501060724,0.674000173999997
mp-780275,Ag2 B2 O6,10,3,10.99353807286683,0,5,167,3.3120000000000003,33.342,0.0,9.16853274233245,4.559153900381959,2.3112631340877305,0.0853834544166654
mp-18841,La1 Cr1 O3,5,3,12.113309022731803,1,1,221,3.274,47.78,0.5,3.927151,2.595322964755865,0.45213985465923845,0.09145682449999981
mp-626528,Nb4 H4 O12,20,3,12.013819588121367,0,6,1,3.0740000000000003,28.3836,0.0,7.846893873192238,4.280309694028823,1.5838121454327014,0.04508074303571341
mp-778450,La4 Sm4 O12,20,3,16.36122234391754,0,2,33,2.882,67.46000000000001,0.0,8.731912,4.90726602846015,1.6985217589527137,0.06676756524999661
mp-757636,Nb8 Tl8 O24,40,3,15.56024519544954,0,6,1,3.45,69.062,0.0,13.812886096481847,6.557846704547717,2.904594142280489,0.0
mp-1184942,K1 Au1 O3,5,3,14.37522043989819,4,1,221,2.5088,56.82000000000001,2.0,4.15778,2.7477379699437683,0.4786925801694634,0.36514041149999876
mp-1020124,Mg16 Si16 O48,80,3,10.935821981656666,0,7,14,2.7880000000000003,20.080000000000002,0.5,18.53143444655088,7.844593623105281,3.7650918599788756,0.010191609166669835
mp-4531,Na2 N2 O6,10,3,12.000620150203474,0,5,167,2.7666,17.0,0.5,9.416322483940135,4.419012877508679,2.2790500946318866,0.0
mp-1272388,Fe2 Ni2 O6,10,3,10.126706381606004,4,5,146,3.3040000000000007,32.507999999999996,2.0,6.6865976108132825,3.680478921743019,1.4683097041789392,0.07782081216666548
mp-23080,Al1 Bi1 O3,5,3,10.863822301469579,0,1,221,2.6740000000000004,56.791999999999994,0.5,3.787194,2.5028300567474036,0.43602635720560257,0.1216092342500028
mp-1101383,Sc2 Bi2 O6,10,3,14.188024260616114,0,5,148,2.7760000000000002,60.388,0.0,8.716729139263204,4.451751464345808,1.7178045516321527,0.07358531587500128
mp-1358047,Y6 Bi6 O18,30,3,16.518310888936085,0,3,185,2.87,69.178,0.0,13.082135,6.031434438284963,2.565955797728722,0.12011459187500062
mp-1207852,V4 Sn4 O12,20,3,11.97717200248361,4,2,62,3.25,43.528,0.0,7.854641,4.46124980897919,1.6068809206518915,0.2678224332500001
mp-1178549,Al4 V4 O12,20,3,9.305638763133667,4,5,148,3.3,25.184,0.5,9.70232166032631,4.355175055407882,1.7437585963155087,0.01981587062498491
mp-752521,Li4 Fe4 O12,20,3,10.220938370253734,4,7,15,2.742,22.157999999999998,2.0,9.721457505060364,4.452496665410623,1.938793641653844,0.1473070441000015
mp-1189809,Ca4 B4 O12,20,3,13.292367965447585,8,7,14,3.09,19.778,0.5,9.439899,5.0764497155378026,2.1022736165716513,0.10248906262500235
mp-18656,Gd4 Ga4 O12,20,3,11.630273955638364,4,2,62,2.95,55.004,0.0,7.703354,4.4722419824923705,1.542399824227878,0.04892607999999932
mp-1227982,Ba1 C1 O3,5,3,17.785552449024884,0,5,155,3.414,39.462,0.5,6.0119260959453245,3.6606272808263567,0.7376883343415674,0.04905046100000199
mp-4019,Ca4 Ti4 O12,20,3,11.204986884650033,0,2,62,2.898,27.189999999999998,2.0,7.63635962,4.451859967515171,1.6019461111591378,0.0
mp-685413,Li26 Nb26 O78,130,3,11.426701183968847,6,6,1,3.4,29.57,0.5,74.28496114955155,25.573733488172895,17.442035645594498,0.1151777043076958
mp-1101720,Sn8 Pb8 O24,40,3,14.123530161370997,0,2,55,2.5940000000000003,74.78,0.5,11.820277,5.886500060834328,2.3330145023653026,0.07625807850000044
mp-1183169,Al1 Ag1 O3,5,3,10.555551127981273,4,1,221,2.8280000000000003,36.576,0.5,3.751028,2.4789291549630414,0.43186250152915784,0.3399282305909104
mp-17552,Ca6 Si6 O18,30,3,13.669824292121145,0,7,15,2.854,23.234,0.5,11.430049610241682,5.063338985363826,2.117405834390644,0.020313684333324034
mp-1178547,Al2 Rh2 O6,10,3,9.889501139978403,0,3,194,3.3880000000000003,35.576,0.5,11.75262546,4.682657720687194,2.447436891209927,0.0432350841363629
mp-976258,Eu1 Pt1 O3,5,3,13.450907842301593,1,1,221,3.1,79.02000000000001,0.5,4.066685,2.6875363261886807,0.46820465137319767,0.41121974412500073
mp-1101462,Nb8 Tl8 O24,40,3,15.54951617040533,0,7,9,3.45,69.062,0.0,13.764856683909718,6.492308903903713,2.7531887717550694,0.0013711412499981535
mp-1185388,Li1 Pm1 O3,5,3,10.51424714134114,3,1,221,1.886,39.988,0.5,3.746129,2.4756915694451074,0.43129847097673557,0.28754624396428596
mp-505604,Gd4 Ni4 O12,20,3,10.74900963147596,8,2,62,3.2760000000000007,52.798,0.5,7.47467175,4.376967704740592,1.507625298158562,0.0
mp-768333,Dy6 Y6 O18,30,3,15.351456614419073,0,3,185,3.0420000000000003,59.88199999999999,0.0,12.800039,5.856219674566878,2.485936795338869,0.09660443454166767
mp-14550,Ti4 Cd4 O12,20,3,11.369326900224667,0,2,62,2.762,41.654,2.0,7.718095,4.479330388391631,1.5550288459545234,0.0425426290000015
mp-7375,K1 Nb1 O3,5,3,13.285117366229397,0,5,160,3.2608000000000006,36.001999999999995,0.5,4.061438480291309,2.6633186768218517,0.515512600321605,0.0
mp-3205,Ca2 C2 O6,10,3,11.0769826894637,0,2,59,3.402,20.018,0.5,5.140678,3.416673794527629,0.9700706146831867,0.1688654740000004
mp-1183926,Cs1 Rb1 O3,5,3,18.960856403252173,0,1,221,1.8912000000000002,53.274,0.0,4.559767,3.01339775553218,0.5249740559148328,0.664383742
mp-27249,Cu1 C1 O3,5,3,11.678035354703471,1,7,8,3.732,24.712,0.5,5.638675348325588,2.7652821882240795,0.8817864725371642,0.1404106780000003
mp-1254277,Al4 Fe4 O12,20,3,8.970180070629734,4,2,62,3.0940000000000003,26.165999999999997,2.0,7.438778,4.096844015417311,1.4431867787117079,0.2802331710000141
mp-1196890,Sc8 Rh8 O24,40,3,10.821298152565667,0,7,14,3.4900000000000007,39.172000000000004,0.0,11.937172340528027,5.963407151676337,2.6751671132784454,0.024614263874997988
mp-1392353,Al2 Bi2 O6,10,3,14.797103559945393,0,3,194,2.6740000000000004,56.791999999999994,0.5,12.876102,5.27112649384335,2.7195093593739177,0.8655976372500023
mp-998543,Ca2 Tc2 O6,10,3,11.952833820373254,2,5,161,3.2980000000000005,37.215999999999994,0.5,7.73439459855825,3.9672654983535227,1.9051525094650765,0.02948881950000093
mp-654812,Cd1 C1 O3,5,3,12.985250518350995,1,5,166,3.2659999999999996,34.482000000000006,0.5,6.522184301347439,3.112443496124449,1.1441778283156288,2.8887463209999935
mp-642209,Mg8 Si8 O24,40,3,10.193886938130253,0,2,33,2.7880000000000003,20.080000000000002,0.5,9.591577,5.2795110093059545,2.0066186133835346,0.4491626401666693
mp-7405,Sm4 Al4 O12,20,3,10.420890024180416,0,2,62,2.6660000000000004,45.076,0.5,7.46953229,4.387528792205986,1.526371711574931,0.0
mp-8037,Ba1 Th1 O3,5,3,19.4686600765013,0,1,221,3.18,83.46000000000001,0.5,4.600115,3.0400624014757582,0.5296193926629716,0.08340608999999866
mp-1413617,Na4 Br4 O12,20,3,21.572843358780098,0,2,19,2.0266,30.177999999999997,0.5,7.749286,5.030121786474751,1.7767327645656694,0.6091715844999994
mp-1080060,La2 Al2 O6,10,3,10.878465400540929,0,2,74,3.132,42.775999999999996,0.5,6.9885980445953875,3.701780336978731,1.4807080516811093,0.0
mp-776093,Cs4 As4 O12,20,3,19.019803521675012,0,2,57,2.3128,51.164,0.5,11.77973995,5.206236661220152,2.211192655315445,0.0
mp-1227040,Cd2 Ge2 O6,10,3,13.779220244027488,0,7,9,2.5620000000000003,46.606,0.5,9.726375397587326,4.6440939586426895,2.2364467993873047,0.7127611876249986
mp-552676,La1 Fe1 O3,5,3,12.393284636546223,2,1,221,3.31,48.55,0.5,3.957177,2.615166145560413,0.4555968012538558,0.13000849400000014
mp-554440,Cu8 Se8 O24,40,3,13.42894057411328,8,7,14,2.75,38.104,0.5,11.935671879427828,5.6085492789788045,2.1849148583450777,0.014917914999998949
mp-975394,Rb1 Be1 O3,5,3,11.692559825166425,3,1,221,2.3944,28.49644,0.5,3.881145,2.564919135538054,0.4468431023435131,0.7759267950000011
mp-1187247,Sr2 Mo2 O6,10,3,13.451072644002824,2,4,140,3.2680000000000007,46.314,0.0,7.459914479168219,3.7551746270630537,1.3116123028723186,0.04023773000000119
mp-776216,Al2 Co2 O6,10,3,9.323907440412558,2,6,2,3.116,26.782,2.0,6.4179960638769,3.562565259450438,1.4177356377782002,0.13517791681817926
mp-556216,H8 I8 O24,40,3,13.638297077934023,0,2,61,1.782,35.1816,0.0,15.264686,6.6644950649094215,3.211837659396651,0.018122821749998685