id,composition,Natom,Nelem,D,Nmag,CS,SG,E,M,MR,MSVL,dmean,dstd,ehull
mp-1183695,Cr1 Tc1 O3,5,3,11.796559303327331,1,1,221,3.75,39.6,0.5,3.892618,2.5725012581441478,0.4481640091669343,0.6304814391249991
mp-1189840,Sr4 B4 O12,20,3,14.024563743610702,4,2,62,3.066,29.286,0.0,7.057235,4.394549558228862,1.7074574534138325,0.06289907899997527
mp-22789,Dy4 V4 O12,20,3,11.22468451018993,4,2,62,3.2299999999999995,52.288,0.0,7.54368515,4.387414650406742,1.528500133109478,0.0
mp-19353,Pr1 Cr1 O3,5,3,11.743635289999693,1,1,221,3.12,48.18,0.5,3.886788,2.56864840581315,0.44749279093451516,0.11802325949999926
mp-4571,Ca4 Zr4 O12,20,3,12.936325039318259,0,2,62,3.178,35.86,2.0,8.01738023,4.610419638592595,1.6564082271709442,0.0
mp-1181218,Mn10 Si10 O30,50,3,12.765335966611033,10,6,2,3.0700000000000003,26.206,0.5,13.766615418659558,6.281009793466215,2.6663672722005107,0.11685922296667073
mp-977389,Ce1 Cu1 O3,5,3,11.261876543748064,1,1,221,3.1220000000000003,50.33,0.5,3.832895,2.5330323216494426,0.44128799433078114,0.3992384580000028
mp-755003,La2 Bi2 O6,10,3,17.675022353888693,0,5,148,2.89,79.176,0.0,8.905056268158543,4.842090921146366,1.8232829987361103,0.04065048959999906
mp-1016931,V1 Zn1 O3,5,3,10.805142712381656,1,1,221,2.8920000000000003,32.864,0.5,3.780363,2.4983156769407073,0.43523989206912644,0.5494903799999973
mp-555665,Na4 V4 O12,20,3,13.729499609237909,0,2,62,2.8446000000000002,24.386,0.5,14.30031451,5.812804519952214,2.9038545856500275,0.005755477500000161
mp-25296,Mn3 B3 O9,15,3,12.526434271123634,6,3,174,3.306,22.75,0.5,10.290961978598599,4.61775747715141,1.965938133475973,0.22578446271875485
mp-627119,V4 H4 O12,20,3,13.041444731220238,0,6,1,2.622,19.989600000000003,0.0,12.149079983615895,5.254254004481302,2.432396886750993,0.06922966274999798
mp-972985,K1 Pd1 O3,5,3,13.484583973545082,4,1,221,2.5248,38.7,0.5,4.070076,2.6897773248601067,0.4685950632130149,0.16620512933333398
mp-1199778,Mg8 Si8 O24,40,3,11.169347229634829,0,2,33,2.7880000000000003,20.080000000000002,0.5,9.393232,5.4030693768039875,2.114407444693613,0.011876652916669173
mp-1184215,Fe1 As1 O3,5,3,10.969739427901178,1,1,221,3.008,35.754000000000005,2.0,3.799462,2.510937568307724,0.43743879378799005,0.7807650435000006
mp-975236,Rb1 Pt1 O3,5,3,13.835419502048264,4,1,221,2.8984,65.714,0.5,4.105072,2.712905012711833,0.47262421471588667,0.16022298400000334
mp-4784,Ca2 Pt2 O6,10,3,11.494236831033714,0,2,63,3.096,56.636,2.0,7.3689055500000045,3.844119103398535,1.4027815734095055,0.0
mp-1199561,Fe8 Si8 O24,40,3,11.449739499460403,8,7,14,3.342,26.387999999999998,0.5,9.692334301068403,5.4188783863294185,2.10793670506417,0.01569327641667151
mp-1378965,Ca4 Bi4 O12,20,3,14.470530931388954,0,2,62,2.364,59.412,0.5,8.3243734,4.734563425194936,1.6997031921791625,0.02529495649999891
mp-1205366,Lu4 Rh4 O12,20,3,10.90746556179833,0,2,62,3.596,65.17999999999999,0.0,7.48237152,4.314369833310368,1.4810661098686184,0.0
mp-5431,Ba2 Te2 O6,10,3,18.926378785886058,0,7,11,2.378,62.58,0.5,7.312213658422643,4.004256472863494,1.3576062126916295,0.0
mp-1337287,V4 Cr4 O12,20,3,10.536858607639385,8,6,1,3.442,30.188,0.5,9.058056004279234,4.244850224088748,1.6189394793058938,1.2737238471250016
mp-662551,Tl8 N8 O24,40,3,18.03186306948568,0,2,62,2.9200000000000004,53.282,0.0,10.549604,5.861531622994092,2.1383803128542556,0.6832117194999947
mp-975207,Rb1 Sm1 O3,5,3,19.17550581781773,3,1,221,2.1584000000000003,56.774,0.0,4.576909,3.024726330945207,0.5269476447553354,0.271069491125
mp-19217,Er6 Mn6 O18,30,3,12.142641366771663,6,3,185,2.8020000000000005,54.048,0.5,11.380856130000009,5.5922672469756955,2.293962504126087,0.0
mp-1101657,Na4 V4 O12,20,3,15.825355523245468,0,7,15,2.8446000000000002,24.386,0.5,9.652307793241222,4.905020203185213,2.030131327352147,0.04287294550000098
mp-1272846,Ca4 Fe4 O12,20,3,11.33151365257426,4,7,14,2.7840000000000003,28.786,2.0,7.671140971119117,4.539874716838706,1.6390871846234496,0.004620416999999932
mp-19270,Ti2 Fe2 O6,10,3,10.229482436671372,2,5,161,3.386,30.344,2.0,7.890396969753826,4.074768279769657,1.999676115944619,0.03177374999999927
mp-1079111,Eu2 Ti2 O6,10,3,11.831253652456533,4,4,140,2.902,49.574,0.5,7.260124535040413,3.627149058784034,1.2876696332156212,0.0
mp-726260,P4 N4 O12,20,3,16.562930720738997,4,2,19,3.2299999999999995,18.595999999999997,0.0,13.246712,5.853735799964856,2.7428198223253832,0.7339945037500035
mp-755462,Pr4 Hf4 O12,20,3,13.832992223557586,0,2,62,3.588,73.47999999999999,0.0,8.156554,4.753276213263184,1.7230902107348047,0.13526831525000205
mp-5076,Sr2 Zr2 O6,10,3,13.929130396935383,0,4,140,3.154,45.368,0.5,7.703824190665498,3.8247260884918015,1.3475198980844532,0.009295327000000242
mp-1182670,Ca2 Sn2 O6,10,3,17.327347287152,0,6,2,2.556,41.356,0.5,16.385906581894382,6.134355611753581,2.9006698401780544,1.0868766015000073
mp-624691,V4 Ag4 O12,20,3,13.906689329161745,0,7,15,3.2120000000000006,41.368,0.0,7.615894097035857,4.416755174308584,1.5240502836339782,0.015559444500011566
mp-1340878,Y4 Sb4 O12,20,3,14.84126158950798,0,2,62,2.9840000000000004,51.742,0.0,8.559337,4.7728200744674485,1.6806654723352612,0.31327864574999964
mp-1185996,Mn1 B1 O3,5,3,7.841561380320572,4,1,221,3.306,22.75,0.5,3.397224,2.2451119052004316,0.39112841996777736,1.0809943220520886
mp-28290,Cd8 Te8 O24,40,3,15.123187329040338,0,7,14,2.23,57.6,0.5,11.30735991,6.364177081849501,2.498799932093465,0.0
mp-756272,La4 Dy4 O12,20,3,15.614196663240042,0,2,33,3.0620000000000003,69.88,0.0,8.576976,4.820777395262173,1.7094324591375778,0.03987823362499654
mp-1212884,Dy4 Rh4 O12,20,3,11.374089739405116,0,2,62,3.318,62.67999999999999,0.0,7.573281,4.366876561608309,1.5790733213418549,0.0
mp-27144,Tl8 P8 O24,40,3,15.967895819043159,0,4,114,2.6220000000000003,56.674,0.0,11.10122861,6.0692011815769895,2.2618755085379303,0.0
mp-22705,Ba4 Pr4 O12,20,3,18.964567537739672,12,2,62,2.68,65.24000000000001,0.5,9.107009,5.26331760403177,1.82488939017971,0.10705341450000017
mp-1186787,Pu1 Mg1 O3,5,3,11.217992635467937,1,1,221,2.582,63.262,0.5,3.82791,2.529737901603128,0.4407140624459426,0.6129025160000019
mp-981367,Sr1 Tl1 O3,5,3,15.67569286199748,0,1,221,2.2800000000000002,68.00399999999999,0.0,4.279558,2.8282169838655755,0.4927130971347373,0.24066696549999378
mp-1187714,U1 Pd1 O3,5,3,14.926255251575407,0,1,221,3.4480000000000004,78.47999999999999,0.0,4.210241,2.7824076931232584,0.48473250807528573,0.4410877060000047
mp-28295,Cs2 I2 O6,10,3,20.38924746422905,0,2,31,1.9428,61.56,0.0,6.61473721,4.662641362754832,1.4715131986844467,0.0
mp-616587,Rb8 P8 O24,40,3,17.768910448603513,0,7,14,2.4164000000000003,32.888,0.0,16.1214524267943,6.981582823860341,3.2039497032512365,0.0024709204999995293
mp-561086,Ca12 Si12 O36,60,3,13.655262286934931,0,7,15,2.854,23.234,0.5,19.79635558371958,8.451577945572868,4.094856478185016,0.02021643499999115
mp-674361,Li10 Nb10 O30,50,3,11.198547313900214,0,6,1,3.4,29.57,0.5,21.732014561950077,8.254140211392281,4.609008388528886,0.01005641740000307
mp-1101047,Ti2 Cd2 O6,10,3,27.793610284000756,0,6,1,2.762,41.654,2.0,17.589791219172255,8.995828206837244,4.920507834494277,1.1145351800000007
mp-1105866,Lu4 Ni4 O12,20,3,10.473991858460295,4,7,14,3.3340000000000005,56.338,0.5,9.551304216736144,4.543312282864489,1.8841591964652973,0.01643878120833353
mp-1016932,Mn1 Zn1 O3,5,3,10.452396958737001,1,1,221,2.414,33.664,2.0,3.738769,2.4708275912022026,0.43045110113272095,0.5611729100000042
mp-3119,Nd4 Ti4 O12,20,3,12.402387878190888,4,2,62,3.21,48.013999999999996,0.5,7.854856,4.582963676577795,1.5808203204712152,0.04200246949999453
mp-756546,Sc4 V4 O12,20,3,10.78877179595276,4,2,62,3.4019999999999997,28.78,0.0,7.817130000376372,4.3357391999744355,1.599794788248412,0.049391989499998346
mp-1178354,Eu8 Zr8 O24,40,3,14.644552276427927,8,1,198,3.182,58.24400000000001,0.5,8.367172,5.991845541806784,2.2324143890829213,0.08439294925000596
mp-1368304,Ca4 Co4 O12,20,3,10.742629163471198,4,2,62,2.806,29.401999999999997,2.0,7.48887,4.3946971305662315,1.5596460053839416,0.06518124666666658
mp-1187425,Th1 Si1 O3,5,3,11.718680915366614,0,1,221,3.7260000000000004,61.617999999999995,0.0,3.884033,2.5668277183051065,0.4471756029018711,1.108246121500013
mp-18770,Y1 Cr1 O3,5,3,11.447857655913895,1,1,221,3.254,37.782,0.5,3.853879,2.5468999465745954,0.44370391944040116,0.30330756549999904
mp-1189541,Na4 Br4 O12,20,3,23.538067082097015,0,1,198,2.0266,30.177999999999997,0.5,7.779176,5.685297853022082,1.9969358916928177,0.1321937809999998
mp-755865,Tb4 Ni4 O12,20,3,10.552548978817041,4,2,62,3.258,53.11800000000001,0.5,7.4119376,4.318483564668506,1.5464833538697225,0.0
mp-1105811,Sc4 Mn4 O12,20,3,10.936751717179819,4,7,14,2.9240000000000004,29.580000000000002,0.5,7.919263757773623,4.3189013630354625,1.6094999899858347,0.04997392056249872
mp-1178360,Dy4 In4 O12,20,3,13.267789029764796,0,2,62,2.672,65.06,0.0,8.191486,4.617809739008069,1.603799108750479,0.06403290700000142
mp-1186118,Na1 Ca1 O3,5,3,18.305770728716894,3,1,221,2.1506,22.214,2.0,4.506638,2.9782865734578174,0.5188572199851242,0.5464164819999997
mp-754140,Ca4 Se4 O12,20,3,14.44866045789551,0,2,62,2.4200000000000004,33.410000000000004,0.5,8.34205588,4.741864269179126,1.7262449517194678,0.02182594499999979
mp-1183292,Ba1 Cd1 O3,5,3,15.93098383752599,0,1,221,2.1719999999999997,59.540000000000006,2.0,4.302665,2.843487628601827,0.49537344699691765,0.20288103799999657
mp-555769,Sc4 Bi4 O12,20,3,14.110049774567576,0,7,15,2.7760000000000002,60.388,0.0,10.563538144363106,5.2124374603891,2.1418950473909812,0.03448242537500068
mp-1209729,Pu4 V4 O12,20,3,12.175561882035307,8,2,62,3.342,68.588,0.0,7.769389,4.491954797298538,1.6285314107912738,0.04799395608334045
mp-23438,Ba2 Bi2 O6,10,3,17.35986381818341,0,1,225,2.3760000000000003,78.856,0.5,8.855276,4.425733481261383,2.2179702168868256,0.024886166999999126
mp-1403003,Tl1 Ni1 O3,5,3,10.886834157842253,1,2,38,2.8240000000000003,62.218,0.5,3.801463138124175,3.0588283639525224,1.0475598370004624,0.3660566475833331
mp-4385,Cd2 C2 O6,10,3,11.552902720431366,0,5,167,3.2659999999999996,34.482000000000006,0.5,9.42141019741245,4.710307216511097,2.364017379908015,0.0
mp-1188902,Ca4 C4 O12,20,3,11.664803155525671,0,6,2,3.402,20.018,0.5,7.38692169055698,4.217765186229076,1.5556536257656755,0.002730832500001057
mp-1187745,U1 Hg1 O3,5,3,15.781278378233349,1,1,221,2.804,97.32000000000001,0.5,4.289145,2.834552712046926,0.4938168654356298,0.24559588750000216
mp-1184937,K1 As1 O3,5,3,11.355375479881692,0,1,221,2.3388,32.404,2.0,3.843473,2.5400229686404003,0.4425058582180077,0.4293638469999932
mp-697089,Ti2 Mn2 O6,10,3,9.89266567412891,2,6,2,3.114,30.162,2.0,11.709340193809782,4.6528076086852135,2.3866494003044707,0.8632776140000011
mp-756708,Ca4 Pr4 O12,20,3,16.30112592770017,12,2,62,2.668,45.79600000000001,0.5,8.446265,4.834246476890003,1.7048336633642331,0.1753800013750002
mp-1188609,Ho4 Co4 O12,20,3,13.414843742345358,4,2,62,3.066,54.36600000000001,0.5,12.251152,5.405753122805556,2.465860381769511,0.42040786550001474
mp-1176521,Li2 V2 O6,10,3,10.489827015989523,0,7,12,2.948,21.176,0.5,6.365192810691755,3.510960469972197,1.3020349578295622,0.08275927200000854
mp-1186669,Pm1 W1 O3,5,3,14.061385282683398,2,1,221,3.3400000000000007,75.36,0.0,4.1273,2.7275947556986937,0.4751833637502287,0.5555465584999997
mp-1016874,Si1 Hg1 O3,5,3,9.844426725857833,0,1,221,2.62,55.338,0.5,3.664827,2.421961792392842,0.421938027626453,0.4942845855000009
mp-1183395,Ba1 W1 O3,5,3,14.443536493631843,1,1,221,3.72,73.82000000000001,0.5,4.164356,2.752083828765147,0.47944968670400684,0.15841601649999504
mp-1212108,Ho4 Rh4 O12,20,3,11.27287626653443,0,2,62,3.338,63.160000000000004,0.0,7.55043384,4.350513193831228,1.5721530868939801,0.0
mp-1186993,Sc1 Si1 O3,5,3,9.1956726203738,0,1,221,3.2659999999999996,24.21,0.0,3.582486,2.3675453749337314,0.41245796236476684,0.7078265899687413
mp-971704,Zn1 B1 O3,5,3,7.7147128506893665,0,1,221,2.992,24.838,0.5,3.378806,2.232940063994205,0.3890079229858396,1.1254540567916669
mp-753026,Zn4 Co4 O12,20,3,10.35568724365431,4,7,15,2.708,34.462,2.0,6.818530190377505,4.1129475240824895,1.423180033413897,0.056598405447367384
mp-2225290,Mg1 Cr1 O3,5,3,15.154692690174954,1,7,6,2.682,24.862000000000002,2.0,6.301237419213034,3.2211139318122846,1.0572034015223069,0.1716486159999997
mp-760376,K1 Ti1 O3,5,3,15.719173197249457,2,4,99,2.7168,26.994,2.0,5.766897,2.928784745509687,1.002557520423861,0.08987783225000001
mp-6909,Ba2 Pr2 O6,10,3,18.98531860693081,6,2,74,2.68,65.24000000000001,0.5,8.439537134783054,4.91945811317613,1.8961636716375285,0.11221457199999918
mp-1180658,K4 Ti4 O12,20,3,14.05455912429478,6,3,194,2.7168,26.994,2.0,9.652997,4.677004554188807,1.9081334861929125,0.09979737174999936
mp-863708,K1 Pu1 O3,5,3,15.32192776029498,1,1,221,2.4668,66.22,0.5,4.24713127,2.8067794028955717,0.4889783848049093,1.7393999998560616e-05
mp-8098,In2 Ga2 O6,10,3,11.584663498527046,0,3,194,2.6260000000000003,46.504,0.0,12.06608203,4.82959701721055,2.5021786311392904,0.0
mp-1432347,Y1 Cu1 O3,5,3,10.820507253034675,0,1,221,3.132,40.092,0.5,3.782154,2.4994992890375882,0.4354460930732883,0.22244317270454417
mp-1366217,Ca20 Te20 O60,100,3,16.251279576798908,0,4,76,2.3660000000000005,43.136,0.5,12.114144080000932,7.844333866696985,2.823925454197856,0.0
mp-753988,V4 Cr4 O12,20,3,9.950265574239419,8,6,1,3.442,30.188,0.5,7.41203487367732,4.06713143444764,1.41962918231556,0.011217036125003688
mp-756290,Tb4 Ga4 O12,20,3,11.419860772036127,0,2,62,2.932,55.324,0.0,7.659555,4.426759139446876,1.5463854444226472,0.047180733583333634
mp-1185387,Li1 Nd1 O3,5,3,10.734820474347911,3,1,221,2.566,39.827999999999996,0.5,3.772144,2.4928840142805937,0.43429362403271937,0.2598881499642838
mp-625657,Te8 H8 O24,40,3,12.244223155632733,0,7,7,1.998,35.321600000000004,0.0,12.068083244564049,5.740011768412927,2.428391618148504,0.02685548300000029
mp-975308,Rb1 Gd1 O3,5,3,17.88776437132448,4,1,221,2.5584000000000002,58.153999999999996,0.0,4.472071,2.9554483082661855,0.5148784897674826,0.1769357584999991
mp-975255,Rb1 Pd1 O3,5,3,14.071700554086837,3,1,221,2.5084000000000004,47.974000000000004,0.0,4.128309,2.7282615701072657,0.4752995317084638,0.1556027990000013
mp-1370061,Mg4 V4 O12,20,3,9.958890337400963,4,2,62,2.9240000000000004,24.65,0.5,7.449735,4.229634268700258,1.485657409466238,0.09281653749999919
mp-1183414,Be1 Au1 O3,5,3,9.107392914313083,0,1,221,2.9859999999999998,50.802440000000004,2.0,3.570985,2.359944748062583,0.41113383185172153,0.8424093302499998
mp-1184022,Cs1 Sm1 O3,5,3,20.171340105605886,4,1,221,2.1488,66.26,0.0,4.654806,3.07620585719352,0.5359160644209889,0.2821080521249968
mp-761574,Co4 Sn4 O12,20,3,11.810943758682875,2,5,148,3.066,45.126,0.5,9.48239495231233,4.761836550113696,1.7995517821419904,0.034825417500004896
mp-1075921,La1 Ni1 O3,5,3,11.475683832732916,1,1,221,3.342,49.118,0.5,3.856999,2.5489618503949574,0.4440631305699292,0.035178056000001234
mp-1213082,Er4 Ga4 O12,20,3,11.181628152926095,0,2,62,2.7800000000000002,57.004,0.0,7.612088,4.36861192296013,1.5890955857570266,0.05067488629999772
mp-1184940,K1 Te1 O3,5,3,13.929857690245019,0,1,221,2.1848,42.94,0.5,4.114391,2.7190636286419463,0.4736971277018069,0.08427374347221939
mp-541581,K6 S6 O18,30,3,17.088291324420034,0,5,150,2.3168,23.834,0.5,11.894761179201275,5.710456317856005,2.332392217333846,0.012870133793857264
mp-8196,Ag1 N1 O3,5,3,13.388611422098112,0,5,160,3.1340000000000003,33.982000000000006,0.0,4.986136869043504,2.564254855161839,1.0785157801294913,0.03117134300000224
mp-781082,Sr14 Cr14 O42,70,3,12.295879061914624,14,2,40,2.724,37.524,0.5,32.25815875111447,11.582733714999835,7.151781564108148,0.06528864165179016
mp-977117,Na1 Te1 O3,5,3,13.447772495006825,0,1,221,2.2206,39.718,0.5,4.066369,2.6873274923402084,0.4681682697331558,0.1326653160624982
mp-772255,Cu6 P6 O18,30,3,17.203717660042948,0,5,148,2.944,28.503999999999998,0.5,11.566822483964037,8.774541837153231,3.7441026600644705,0.027981132833335032
mp-1311921,Mn4 Tl4 O12,20,3,12.254620156458051,4,6,2,2.5200000000000005,61.468,0.5,7.844049765491747,4.629837542397895,1.652774118974641,0.06405137968749841
mp-1185065,La1 Zr1 O3,5,3,14.751632809020416,0,1,221,3.7039999999999997,55.624,0.5,4.193758,2.7715146288056225,0.48283479107271887,0.2867627577874998
mp-755790,Hf4 Pb4 O12,20,3,13.762916743903464,0,2,62,3.2540000000000004,86.74,0.5,8.19633351,4.810203574262063,1.7709932334693281,0.01694165449998053
mp-1017446,Hf1 Cd1 O3,5,3,13.765136169314863,0,1,221,3.0800000000000005,67.78,0.5,4.098109,2.7083033985127365,0.471822552185469,0.2803280044999994
mp-676851,K1 N1 O3,5,3,17.252080768289424,0,5,155,2.7308,20.222,0.5,5.664955534830292,3.6271890654001595,0.6637550642721729,0.02937441350000025
mp-16053,Cu2 Si2 O6,10,3,12.601771806237533,2,2,51,3.184,27.927999999999997,0.5,8.958139,4.160570598440295,1.6919807681968924,0.08781229400000079
mp-3721,Sr2 Hf2 O6,10,3,13.560049749179665,0,4,140,3.192,62.824,0.0,7.614656112959205,3.791372695169094,1.339406428274891,0.004090566999980894
mp-4559,Ba1 C1 O3,5,3,15.01662219229678,0,5,160,3.414,39.462,0.5,5.196034559629345,2.6957065313206257,1.2003854973734955,0.021844735000001947
mp-776110,Si12 Sn12 O36,60,3,15.194303251880662,0,7,13,3.114,38.958,0.0,15.10196881777294,6.950943621952073,2.972210900342743,0.025908295166665596
mp-1184959,K1 Sr1 O3,5,3,22.770704964345846,3,1,221,2.0908,34.944,0.5,4.84673,3.2030420202765804,0.5580126146849383,0.5069057789999993
mp-1184484,Gd1 Si1 O3,5,3,10.381753350294094,1,1,221,3.314,46.678000000000004,0.0,3.730327,2.4652485552882615,0.4294791587110943,0.6070338796250017
mp-1184597,Hf1 Th1 O3,5,3,13.990531645140416,0,1,221,4.088,91.7,0.0,4.120356,2.7230056979651707,0.4743838887234845,0.6684135252499992
mp-998627,Na2 Mo2 O6,10,3,11.98161344596492,2,5,161,3.1466000000000003,33.388,0.5,7.846057152139648,3.9696419646986456,1.9520286600564856,0.08824383200000252
mp-4243,Ca2 Ir2 O6,10,3,11.421872186793518,2,2,63,3.3160000000000003,56.056,0.5,7.327230540004153,3.876480426945266,1.3707698934868597,0.0
mp-935811,K1 Nb1 O3,5,3,13.08220358176979,0,1,221,3.2608000000000006,36.001999999999995,0.5,4.02918278,2.6627523612239203,0.46388695431999083,0.007730227999999784
mp-19299,Cr2 B2 O6,10,3,8.663825814730751,2,5,167,3.5420000000000003,22.162,0.5,8.242784746184318,4.110536415225745,2.0728023811102614,0.0
mp-772898,Al8 Ga8 O24,40,3,9.978738974426896,0,2,33,2.8,28.939999999999998,0.5,9.277844,5.258146744041215,2.019720999413684,0.027670599999999546
mp-573180,La1 Co1 O3,5,3,11.120748249403082,0,1,221,3.332,49.166000000000004,0.5,3.816817,2.5224069083084877,0.43943690569598937,0.07654874600000028
mp-1185692,Mg1 Be1 O3,5,3,8.505569039483134,3,1,221,2.5260000000000002,16.26444,2.0,3.490528,2.3067734032949994,0.4018706748490196,0.6507892195
mp-1199037,Na8 Nb8 O24,40,3,12.977904719464703,0,2,17,3.2966,32.779999999999994,0.5,15.991218,6.725322866652265,3.23531292192425,0.0424806867499985
mp-1184992,K1 Cd1 O3,5,3,16.347684758768615,3,1,221,1.9788000000000001,39.9,2.0,4.339857,2.868066579527116,0.49965542787172645,0.4025914340000014
mp-7143,Ba1 Pu1 O3,5,3,16.818223468643836,1,1,221,2.66,85.86,0.5,4.38110308,2.8953240889057392,0.5044040493328978,0.0243402839999991
mp-780421,La6 Al6 O18,30,3,14.062621642337557,0,6,2,3.132,42.775999999999996,0.5,8.815033916777596,5.069974021754715,1.9235218620019376,0.08264037300000204
mp-18974,Ho4 Ni4 O12,20,3,10.38048670554988,4,2,62,3.076,54.318000000000005,0.5,7.36043418,4.301494523824945,1.4776584558016124,0.0
mp-676536,K18 Bi18 O54,90,3,17.847219107104603,0,6,1,2.1828000000000003,59.215999999999994,0.5,22.23419457342805,9.40154137635106,4.429964847494281,0.030872052388891014
mp-504543,Sn4 Pb4 O12,20,3,15.557868251833535,0,1,227,2.5940000000000003,74.78,0.5,10.756724000000002,4.715738971106799,1.7785437914228157,0.15530578199999923
mp-23501,Fe2 Bi2 O6,10,3,12.536629858388718,8,5,161,2.8520000000000003,62.565999999999995,0.5,7.9169993322733605,3.806978604072662,1.269998547667654,0.0016325030000015062
mp-973919,Np1 Os1 O3,5,3,12.641633649055368,2,1,221,4.140000000000001,95.03999999999999,0.0,3.983435,2.6325191809819075,0.4586199313305048,0.973443296000001