id,composition,Natom,Nelem,D,Nmag,CS,SG,E,M,MR,MSVL,dmean,dstd,ehull
mp-1435359,Ca4 V4 O12,20,3,11.24003096026718,4,7,14,2.9899999999999998,27.803999999999995,0.5,7.68278108647339,4.47202460509758,1.6113023379176912,0.008814690910714518
mp-768267,Ho6 In6 O18,30,3,13.866443626118912,0,3,185,2.692,65.53999999999999,0.0,12.24559480000006,5.701425858773972,2.424592056818504,0.009804144208334087
mp-561385,Sr12 Te12 O36,60,3,17.978479733608445,0,7,5,2.342,52.644000000000005,0.0,22.269132566765116,9.914227367716437,5.144182524206232,0.0023719034999993838
mp-1405591,Mn2 Al2 O6,10,3,9.774293928796551,4,6,2,2.822,25.984,2.0,6.462799327016067,3.6610900825830943,1.3924334059452594,4.964977273943181
mp-1183922,Cs1 Nd1 O3,5,3,20.998397825772397,3,1,221,2.4008000000000003,65.02000000000001,0.0,4.717574,3.1176871325129043,0.5431426555037487,0.28090147074999905
mp-548403,Ca2 C2 O6,10,3,10.47489959704011,0,2,20,3.402,20.018,0.5,6.260491509601462,2.905546410618632,0.9538860886041506,0.30985261200000025
mp-864636,Ce1 Fe1 O3,5,3,12.172887991619131,3,1,221,3.2800000000000002,48.79,0.5,3.933579,2.5995710153190976,0.45287992169148383,0.37612913599999587
mp-984722,Be1 Ga1 O3,5,3,8.30248302613025,0,1,221,2.786,25.34644,0.5,3.462523,2.288265833907423,0.39864640956618935,1.0851871839166654
mp-973269,Sb1 Te1 O3,5,3,14.534918982343067,0,1,221,2.548,59.48,0.0,4.17312,2.757875663727215,0.4804587015563091,0.702754502124999
mp-976952,Na1 Pu1 O3,5,3,14.886349749587046,1,1,221,2.5026,62.998000000000005,0.5,4.20650717,2.7799258812803247,0.48430014341664906,0.0
mp-981376,Sc1 Sn1 O3,5,3,13.859274866088478,3,1,221,2.968,42.332,0.0,4.10743,2.714463336176068,0.47289569543493365,0.6724758995000037
mp-1185308,Li1 Dy1 O3,5,3,9.924090132647986,4,1,221,2.494,43.488,0.5,3.674686,2.428477276291864,0.4230731117694069,0.41252842821428626
mp-1185545,Cs1 Pb1 O3,5,3,17.989991531429308,3,1,221,2.1268000000000002,77.62,0.5,4.480574,2.961061746158486,0.5158564254722985,0.20859698766666757
mp-755382,Bi2 Sb2 O6,10,3,16.676267335128564,0,5,148,2.5460000000000003,75.756,0.0,8.14104502029076,5.120294456417257,2.6108382271626707,0.08616196171429369
mp-1101339,Tb2 Ga2 O6,10,3,11.379690708023501,0,5,167,2.932,55.324,0.0,7.516658062905906,3.8863975576990293,1.834007008290198,0.10628467008333331
mp-1183445,Be1 Si1 O3,5,3,8.409873223027775,0,1,221,3.15,17.02044,0.5,3.477388,2.298089616051552,0.40035784336119995,1.2456975709999965
mp-644879,Mg8 Si8 O24,40,3,10.56807185334696,0,2,60,2.7880000000000003,20.080000000000002,0.5,9.34514,5.35069632240168,2.0560113123100052,0.05082662466666932
mp-975173,Rb1 Y1 O3,5,3,18.753634640393518,3,1,221,2.6044000000000005,44.476,0.0,4.543095,3.002379787425425,0.5230545790073041,0.25637094387499815
mp-30284,Hg2 As2 O6,10,3,15.781998171998964,0,5,162,2.286,64.704,2.0,7.69342784,3.2296137104244007,1.0147435989071556,0.0
mp-1200596,P8 N8 O24,40,3,23.066197660850026,32,2,56,3.2299999999999995,18.595999999999997,0.0,11.449645,6.612580199587317,2.565231158238511,1.528099839500003
mp-754124,Sc4 Co4 O12,20,3,10.377182060870835,4,2,62,3.218,30.377999999999997,0.5,7.6556316937255255,4.280167613933299,1.544091932903626,0.06697373937500117
mp-12271,Mg4 Se4 O12,20,3,11.35054812570208,0,2,62,2.354,30.256,0.5,7.64763004,4.381366965452658,1.6292166835950699,0.0
mp-975296,Rb1 Ho1 O3,5,3,18.197481961514132,4,1,221,2.3584000000000005,59.674,0.0,4.497734,2.972402217170477,0.5178320866847023,0.25147993787500056
mp-1188026,Zr1 B1 O3,5,3,8.199741459431541,0,1,221,3.972,30.006,0.5,3.448181,2.2787876849998496,0.3969951896880835,1.1624291193000076
mp-754853,Ca4 Hf4 O12,20,3,12.614566909697547,0,2,62,3.216,53.315999999999995,0.5,7.94978423,4.603002662803167,1.5923008526628504,0.0
mp-20337,Zr1 Pb1 O3,5,3,15.271676018929696,0,2,38,3.2159999999999997,69.28399999999999,2.0,4.337368954167722,3.07875804454133,0.9676349168163415,0.03254296681249613
mp-1016819,Hf1 Zn1 O3,5,3,13.55009042991978,0,1,221,3.1180000000000003,58.376,0.5,4.076656,2.694125827147921,0.46935263027464735,0.6870288144999961
mp-3404,Rb6 S6 O18,30,3,19.091719424106486,0,5,150,2.3004000000000002,33.108,0.0,12.39824342866985,5.8394729490556205,2.3709595528462826,0.007402475854164869
mp-1245179,Cr16 Fe16 O48,80,3,12.390413984817881,37,6,1,3.2359999999999998,31.169999999999998,2.0,10.199960042568408,6.6942403556042525,2.471330285951798,0.3990163157499893
mp-756941,Li4 Fe4 O12,20,3,9.892730715216379,4,2,52,2.742,22.157999999999998,2.0,8.119357,4.098334775998395,1.5320394904356325,0.14844422860000162
mp-9831,La1 Ga1 O3,5,3,19.466019295871078,3,1,221,3.016,51.324,0.0,4.599907,3.0399249412210674,0.5295954452543367,1.4438151811428606
mp-1179783,Rb1 I1 O3,5,3,36.70949055776034,0,7,8,1.9524000000000001,52.074,0.0,9.584124026996832,5.037466010064824,2.1624720115201206,0.9936082099999961
mp-510672,Mn6 Pb6 O18,30,3,12.529040944733202,6,7,15,2.55,62.028,2.0,13.858400533678916,6.04647346302822,2.9810886687601306,0.07190644655129574
mp-1101263,Tm4 In4 O12,20,3,13.099118796966001,0,2,62,2.548,66.34,0.0,8.290247,4.572605443887761,1.660997290975932,0.08634727724999891
mp-1178562,Ag1 Br1 O3,5,3,15.453013662719494,0,5,160,2.394,47.160000000000004,0.0,4.906250214959703,3.1626850382761633,1.310889835633609,0.0017967424999998372
mp-772724,Sn4 B4 O12,20,3,14.61137047600999,0,7,9,3.35,35.501999999999995,0.0,12.520806804691986,5.3777463072559435,2.50682447918816,0.09052466656250147
mp-547864,Cd1 C1 O3,5,3,14.151112543320519,0,5,166,3.2659999999999996,34.482000000000006,0.5,4.267372453898066,2.715419244948252,0.4454594149381213,3.2333036509999933
mp-779599,Dy4 Ti4 O12,20,3,11.733040705907847,8,2,62,3.1380000000000003,51.674,0.5,7.692903,4.455022796864001,1.5334429141335901,0.05728245950002275
mp-1076711,Sr1 Cu1 O3,5,3,11.310479788830744,1,1,221,2.6020000000000003,39.834,0.5,3.83846023,2.536671055495753,0.44192191061990704,0.05741878300000103
mp-1183393,Ba1 Tl1 O3,5,3,16.465322699854873,0,1,221,2.316,77.94000000000001,0.5,4.350242,2.87492967926252,0.500851071326902,0.1192370462499941
mp-1016833,Ca1 Rh1 O3,5,3,12.36541955457703,1,1,221,3.0780000000000003,38.196000000000005,0.5,3.954209,2.6132046934646325,0.4552550901537151,0.2573324760000002
mp-1224030,In1 Cu1 O3,5,3,11.74760846196331,0,5,160,2.762,45.269999999999996,0.5,9.885137459036258,7.419248065535912,4.1363156650662205,0.04181819162500133
mp-1016930,Zn1 Ge1 O3,5,3,10.312060446151085,0,1,221,2.6,37.202,0.5,3.721961,2.4597197452366113,0.42851596630416133,0.5910984911666635
mp-561954,Tm4 Co4 O12,20,3,10.791326622589775,0,2,62,2.9219999999999997,55.16600000000001,0.5,7.360924,4.3302261005631975,1.4795286766109557,0.020188694250000694
mp-1183431,Be1 Os1 O3,5,3,8.12364459058831,0,1,221,3.8579999999999997,49.44244,0.5,3.437481,2.271716412282582,0.3957632797246383,1.301001644999995
mp-8275,Cd2 Ge2 O6,10,3,11.883630558937064,0,5,148,2.5620000000000003,46.606,0.5,8.808590259421774,4.2303641432441745,1.7082021037675263,0.022097247624998317
mp-1186326,Nd1 Re1 O3,5,3,12.807230160906988,1,1,221,3.846,75.67999999999999,0.0,4.000753,2.6439640689181347,0.46061378336292946,0.6074133944999982
mp-1184150,Er1 Al1 O3,5,3,10.09335417903667,0,1,221,2.896,48.456,0.5,3.69546,2.4422061192291076,0.42546485920684723,0.18607017420000105
mp-20016,Sm4 Co4 O12,20,3,10.592451091855876,0,2,62,2.866,51.46600000000001,0.5,7.49230809,4.379696105579878,1.5148992138094117,0.0
mp-775763,Al4 Bi4 O12,20,3,14.204222783442608,0,7,14,2.6740000000000004,56.791999999999994,0.5,9.715832109329428,4.864647967990642,1.7768370028442846,0.07829417875000111
mp-20459,Ti1 Pb1 O3,5,3,12.901312863732974,0,4,99,2.936,60.614,2.0,4.28588762,2.7284865028123955,0.7913162834536208,0.0
mp-2647102,Pu1 Cu1 O3,5,3,11.175028609809088,2,1,221,2.978,71.11,0.5,3.823684,2.5265043283952004,0.4401509071108079,0.47174100799998264
mp-976722,Mg1 Pb1 O3,5,3,12.61378717020305,3,1,221,2.268,55.902,2.0,3.980508,2.6305848244170997,0.45828294063302777,0.5007348609999998
mp-766243,Y8 Zr8 O24,40,3,14.28391137350014,0,7,5,3.684,45.626,0.5,13.65833531427054,6.602390360896043,2.9134537325500323,0.08175863195833344
mp-29526,Br4 N4 O12,20,3,16.123359940562203,0,2,19,2.7880000000000003,28.382000000000005,0.0,11.57273897,5.673881339231801,2.501166469900334,0.0
mp-19035,Ba1 Fe1 O3,5,3,12.340647230254866,1,1,221,2.7960000000000003,48.230000000000004,2.0,3.95157012,2.6114636909175637,0.45495178430456684,0.04802462266666652
mp-1183298,Ba1 Re1 O3,5,3,13.431538004794891,0,1,221,3.5460000000000003,74.3,0.5,4.064732,2.6862456537011274,0.46797979902192605,0.13636216450000127
mp-4783,Ba1 Pr1 O3,5,3,19.3464323256926,3,1,221,2.68,65.24000000000001,0.5,4.590468,3.0336870212978635,0.5285087164557423,0.1908281109999992
mp-972116,V1 Ir1 O3,5,3,12.115076528909375,2,1,221,4.01,58.227999999999994,0.0,3.927342,2.595449190278201,0.45216184482774474,1.2449427135000013
mp-16293,K4 Sb4 O12,20,3,15.008980580372462,0,1,227,2.2968,41.78,0.5,10.628705999999996,4.667664571965468,1.7772886682153974,0.04472297000000136
mp-753953,Gd4 As4 O12,20,3,15.0657551034753,4,7,14,2.98,56.044000000000004,0.5,12.060432,5.634173662391724,2.451994828437667,0.04877113200000238
mp-1444809,Mn2 Al2 O6,10,3,10.362430347666455,2,3,194,2.822,25.984,2.0,11.463825,4.641524216742251,2.393186600055249,0.2843696339431814
mp-1185841,Mg1 Al1 O3,5,3,9.920995494069848,0,1,221,2.54,19.857999999999997,2.0,3.674304,2.4282248252471916,0.42302913143239423,0.4459026910909092
mp-982975,Li1 Be1 O3,5,3,8.62833153330224,3,1,221,2.55,12.79044,2.0,3.507241,2.3178184669327266,0.4037948721592121,0.5701234884285729
mp-555098,Sr4 Se4 O12,20,3,15.324564438974502,0,2,62,2.396,42.918,0.0,12.51970382,5.535734035788401,2.4417969234323316,6.525950000302316e-05
mp-1020117,Mg16 Si16 O48,80,3,11.139729728533105,0,7,7,2.7880000000000003,20.080000000000002,0.5,18.77819788516328,7.988281240577917,3.8701041210559897,0.011153507416669761
mp-755788,Tl2 Co2 O6,10,3,11.690235340971311,0,5,148,2.814,62.266,0.5,8.550812377734275,4.317792359763472,1.96674676448434,0.06459168849999841
mp-17853,Y6 Ga6 O18,30,3,12.740856084308653,0,3,185,2.996,41.326,0.0,11.731544,5.539953323509776,2.347422397684866,0.026932728216666035
mp-22428,Sr4 Ce4 O12,20,3,15.944009622892912,0,2,62,2.768,55.144000000000005,0.0,8.60143538,4.934725869232016,1.79113838705939,0.018176285499990286
mp-626182,Sb4 H4 O12,20,3,14.565090302847105,0,4,141,2.1100000000000003,34.1616,0.0,9.367435029091624,4.6551478065298335,1.7442686138423802,0.01215380499999874
mp-1195263,Ca8 Te8 O24,40,3,18.582199898647517,0,2,29,2.3660000000000005,43.136,0.5,13.777608,6.650859743924465,2.7696926604634675,0.02708040310000115
mp-1183212,B1 Au1 O3,5,3,8.550547779304791,4,1,221,3.4840000000000004,51.162,0.5,3.49667,2.3108324460080323,0.40257781419439154,1.3272232336666683
mp-1187377,Tb1 Te1 O3,5,3,15.578052285824342,0,1,221,2.8080000000000003,66.9,0.0,4.270654,2.8223326275782354,0.49168796383431546,1.1028784879010525
mp-1016823,Ba1 Ge1 O3,5,3,12.612655910726321,0,1,221,2.71,51.586,0.5,3.980389,2.630506181290618,0.458269239952126,0.23236340950000045
mp-754307,Ba2 Nd2 O6,10,3,18.73694230114581,6,5,167,2.62,65.9,0.5,8.941797523541249,4.596223282649862,2.1921821510320396,0.1158703012500002
mp-977176,Na1 Tc1 O3,5,3,11.108139177194392,0,1,221,3.1526,33.798,0.5,3.81537391,2.5214582612200127,0.4392716387282436,0.0
mp-1105167,V4 Cu4 O12,20,3,9.843991569264931,2,1,204,3.3200000000000003,32.498000000000005,0.5,7.329546000000001,4.131218606488966,1.4154039060781871,0.1526737304999939
mp-1105160,Sr4 Ir4 O12,20,3,12.74730619284822,4,2,62,3.2920000000000003,65.564,0.0,7.943546,4.652697972696812,1.609019830157373,0.027674405999998264
mp-973068,Sc1 Cu1 O3,5,3,10.369785194103546,0,1,221,3.0380000000000003,31.302,0.5,3.728893,2.464300872570826,0.42931405974963815,0.5634292605000013
mp-1100926,V8 Ag8 O24,40,3,15.241555987510989,0,6,2,3.2120000000000006,41.368,0.0,16.071992852053516,6.833278176171732,3.2252479676997496,0.07809851700001236
mp-1184944,K1 Ho1 O3,5,3,17.604675283981816,3,1,221,2.3748,50.4,0.5,4.448354,2.9397686240135945,0.5121468797692887,0.2600543665833337
mp-18702,Ag8 P8 O24,40,3,13.088620103218199,0,7,14,2.8360000000000003,37.374,0.0,14.147497511499042,6.405815298907412,3.0299493494570275,0.0
mp-1016851,Hg1 Ru1 O3,5,3,12.272980786082005,0,1,221,3.0420000000000003,69.94,0.5,3.944331,2.6066766531000374,0.45411781850708777,0.30147275250000405
mp-975333,Li1 Ca1 O3,5,3,10.799544409133924,3,1,221,2.254,19.003999999999998,2.0,3.77971,2.4978841310449718,0.4351647110218247,0.34843050542857146
mp-4355,Y4 Ti4 O12,20,3,11.774893543345998,4,2,62,3.404,36.956,0.5,7.702009,4.460685856845013,1.5356847159178748,0.05795329274996597
mp-1184625,Hf1 B1 O3,5,3,8.0360764017225,0,1,221,4.01,47.462,0.0,3.425085,2.2635243097962983,0.3943361062753985,1.3355054685000045
mp-20198,Ca2 Ir2 O6,10,3,11.308204138316107,0,2,63,3.3160000000000003,56.056,0.5,7.6487344541151385,4.064770820415024,1.5730887438180774,0.6539474589999985
mp-551451,Fe1 Bi1 O3,5,3,26.401084535764575,1,6,1,2.8520000000000003,62.565999999999995,0.5,7.331928753397617,2.931189931582515,0.7581700671711066,0.4379271170000001
mp-1183929,Cs1 Na1 O3,5,3,17.604568429790127,0,1,221,1.9434,40.778000000000006,0.5,4.448345,2.9397626762141127,0.512145843583338,0.8390947366666666
mp-1212729,Eu4 Ga4 O12,20,3,11.807931435258112,4,2,62,2.494,53.944,0.0,7.686061,4.491139546954251,1.635764989282853,0.17355575850000093
mp-971700,Zn1 Au1 O3,5,3,12.179099927749894,4,1,221,2.592,62.076,2.0,3.934248,2.6000131350805793,0.4529569448471422,0.7911670241249986
mp-22979,Ga1 Bi1 O3,5,3,11.439574341631417,0,1,221,2.5580000000000003,65.34,0.0,3.85294926,2.5462855124534594,0.4435968768264372,0.19470613100000111
mp-1180714,K2 Sb2 O6,10,3,18.304675960486957,0,6,2,2.2968,41.78,0.5,8.375288200899615,3.8318193512168346,1.3203694581817063,0.8153981540000004
mp-545522,Co1 Bi1 O3,5,3,11.154981114009136,0,4,99,2.874,63.181999999999995,0.5,4.02083227,2.6490276883693604,0.5646105647820088,0.0
mp-554699,Ge6 Pb6 O18,30,3,17.130556887462532,0,5,148,2.7359999999999998,65.566,0.5,11.054501533935165,5.666380927085269,2.2705759818306825,0.0
mp-1342607,Mg4 Mo4 O12,20,3,11.197237904277479,4,2,62,3.2260000000000004,33.652,0.5,7.850493,4.395317124465022,1.5769659537027085,0.059938090999997584
mp-4681,Na4 Nb4 O12,20,3,12.07486691517202,0,2,26,3.2966,32.779999999999994,0.5,7.79067262,4.243111033508196,1.4691766848023764,0.0024077749999982245
mp-5223,Gd4 Al4 O12,20,3,10.354641097743318,4,2,62,3.066,46.456,0.5,7.445629910003818,4.3616200754530805,1.5133192068222645,0.008384388899985495
mp-22734,Hf8 Pb8 O24,40,3,13.931105667633457,0,2,55,3.2540000000000004,86.74,0.5,11.68453719,5.842365507147372,2.3089721208625527,0.010668163499985894
mp-1016849,Cd1 Ru1 O3,5,3,12.123231492422725,1,1,221,3.14,52.3,0.5,3.928223,2.59603141376081,0.45226327591912746,0.33393210099999493
mp-1076360,Rb1 Cr1 O3,5,3,12.297257526226113,4,1,221,2.5504000000000002,37.094,0.5,3.94693,2.608394245417063,0.4544170459832555,0.5080168427500045
mp-1180816,K4 I4 O12,20,3,18.680188482988612,0,7,5,1.9688000000000003,42.8,0.5,11.849482532904657,5.539995870917313,2.08764221715418,0.009446288250000379
mp-1343054,Y4 Sn4 O12,20,3,14.443106085966098,0,7,14,3.0620000000000003,51.122,0.0,10.826753203940825,5.051290684528158,2.16285051751384,0.2004359368437436
mp-1094009,Y1 Ag1 O3,5,3,17.349009398086213,3,1,221,3.024,48.962,0.0,4.426715,2.9254681314594877,0.5096555433488222,0.6337596046249994
mp-3136,Na1 Nb1 O3,5,3,12.889825304034535,0,1,221,3.2966,32.779999999999994,0.5,4.009335,2.6496356261573477,0.46160184423267586,0.04433902399999745
mp-1173486,Sm4 B4 O12,20,3,12.940649388238601,0,2,62,3.15,41.842,0.0,8.868765,4.953078867679126,2.047613036292419,0.036507844000000844
mp-1185357,Li1 La1 O3,5,3,11.171653799382405,3,1,221,2.7800000000000002,38.768,0.5,3.822632,2.526249847640348,0.44010639695182435,0.2220490414642864
mp-755574,Lu4 Al4 O12,20,3,10.103060652585379,0,2,62,3.124,49.995999999999995,0.5,7.36044,4.267355105505203,1.4727314367197821,0.02103255024998596
mp-1435808,Al1 Co1 O3,5,3,10.085342709676508,0,1,221,3.116,26.782,2.0,3.694482,2.4415597916854166,0.42535226033355283,1.3282716538181782
mp-755657,Ti2 V2 O6,10,3,10.46578490578491,4,5,148,3.592,29.362000000000002,0.5,8.009903548436101,4.0078960161701005,1.6395644132342106,0.02940781800000103
mp-1376270,V4 Cr4 O12,20,3,10.481745955305337,8,6,1,3.442,30.188,0.5,9.042626496988925,4.443244719817097,1.6535024981527402,1.300014245125002
mp-755240,As4 Au4 O12,20,3,17.209202273814462,0,7,15,2.914,63.984,2.0,9.141479608944229,4.858508200935131,1.8212315574182865,0.11754279616667063
mp-760994,Na6 Sb6 O18,30,3,14.214871872264451,0,6,2,2.3326000000000002,38.558,0.5,9.494218274624826,5.165999902478074,1.9869573460590109,0.06565528666666509
mp-1184599,Gd1 Zr1 O3,5,3,14.422538746948959,1,1,221,3.6380000000000003,59.303999999999995,0.5,4.162337,2.7507495390813936,0.4792172356557642,0.3928651061999986
mp-1178894,V4 H4 O12,20,3,13.107707082204985,0,6,1,2.622,19.989600000000003,0.0,12.123415598130466,5.261311096413745,2.4566160917587365,0.06399296724999637
mp-755358,Lu2 Al2 O6,10,3,11.412048248056117,0,3,194,3.124,49.995999999999995,0.5,11.469327,4.629142856703684,2.3604025897070198,0.06162717874998691
mp-1186346,Np1 Sn1 O3,5,3,14.392424539991122,1,1,221,3.1340000000000003,80.74,0.0,4.159438,2.7488336867816403,0.4788834686479112,0.8209416810000008
mp-22280,Pr4 Ni4 O12,20,3,11.132304504917798,4,2,62,3.188,49.518,0.5,7.63202038,4.466701030636463,1.6104472468468354,0.0
mp-726037,Sn2 P2 O6,10,3,19.539734301346112,2,7,9,2.874,39.534000000000006,0.0,9.033437622082195,4.980971160403467,2.3199127389779868,0.31074751411426504
mp-975421,Rb1 Ag1 O3,5,3,15.415981384384347,3,1,221,2.3204000000000002,48.274,0.0,4.255792,2.8125108280339335,0.4899768754346215,0.3545726044999986
mp-755711,Mg4 Co4 O12,20,3,10.012767615010912,2,7,15,2.7399999999999998,26.248,2.0,6.759931344985872,4.206307840610842,1.4734753769805313,0.10415066474999968
mp-998602,Rb2 Os2 O6,10,3,16.014665193019955,2,5,148,3.3644000000000007,64.734,0.0,8.227065906514003,4.040369346215974,1.2639444242699698,0.0
mp-1273627,V2 Ni2 O6,10,3,10.260262241030391,4,5,146,3.5100000000000002,31.526,0.5,7.265736322883514,3.2645640492046133,0.9095493937845344,0.08232676800002459
mp-1187220,Ta1 Fe1 O3,5,3,12.603418239695303,1,1,221,4.036,56.95,0.5,3.979417,2.6298638189465824,0.4581573318694652,0.5382121325000231
mp-559051,Ba4 Bi4 O12,20,3,16.733302336037138,0,7,14,2.3760000000000003,78.856,0.5,8.718375489634974,5.115241643666711,1.86749229079747,0.0
mp-20464,Sr4 Pr4 O12,20,3,17.558029322907284,12,2,62,2.644,55.303999999999995,0.0,8.887466,5.062582264231035,1.7513358884102814,0.1450805223749967
mp-3792,Y4 Al4 O12,20,3,10.145587451570243,0,2,62,3.112,32.778,0.5,7.37249317,4.307665314239294,1.489410588897301,0.018835838049996667
mp-3408,Ce2 Al2 O6,10,3,10.68926141185251,2,5,167,3.1020000000000003,43.016,0.5,7.486088403945076,3.7955725980942754,1.8562588963987416,0.0006384559999990103
mp-1180142,Mn2 C2 O6,10,3,18.794551947486113,6,7,15,3.618,22.990000000000002,0.5,6.3167176914227,4.3120234056663085,1.7988902800318318,1.0444584600000004
mp-978490,Si1 Pd1 O3,5,3,9.317800594875353,4,1,221,3.2640000000000002,36.498000000000005,0.0,3.598276,2.3779804586912685,0.41427589304914053,0.7127954029999977
mp-1183917,Cs1 Mo1 O3,5,3,14.120544064342818,1,1,221,3.0848000000000004,55.370000000000005,0.0,4.13308,2.731414564699236,0.47584882539403367,0.37378243524999455
mp-1283250,Ba4 Co4 O12,20,3,13.769717224763644,4,7,12,2.818,48.846000000000004,2.0,9.707752791543479,5.103211156818419,1.9311284413632281,0.0010551950000010635
mp-19062,Nd1 Cr1 O3,5,3,11.881239197947574,1,1,221,3.06,48.839999999999996,0.5,3.90191,2.5786420306758147,0.4492338135950028,0.1431141595000014
mp-862606,Eu1 Sn1 O3,5,3,13.543506844375187,1,1,221,2.56,63.739999999999995,0.0,4.07609181,2.693689426984706,0.46927660691331124,0.13844741162500185
mp-972184,V1 Pt1 O3,5,3,11.090383973553541,5,1,221,3.79,58.80799999999999,0.5,3.81334,2.5201090751086808,0.4390365925237558,0.8465754645000017