id,composition,Natom,Nelem,D,Nmag,CS,SG,E,M,MR,MSVL,dmean,dstd,ehull
mp-1016929,Mg1 Rh1 O3,5,3,11.86576219816849,1,1,221,3.012,35.042,0.5,3.900215,2.5775218617734064,0.44903866524098046,0.7168978249999967
mp-1299294,Sr4 Ni4 O12,20,3,11.923951551405825,16,5,166,2.7920000000000003,38.862,0.5,9.812214339368989,4.674602225423628,1.8109282674915892,0.053711680499993086
mp-1337169,Zn4 Sn4 O12,20,3,11.551530976525488,0,2,62,2.458,46.416,0.5,7.940176,4.440515810675865,1.6044752358439995,0.08284223350000097
mp-1016827,Mg1 Ge1 O3,5,3,10.280607394957851,0,1,221,2.632,28.988,0.5,3.718173,2.4572163825213775,0.4280798471507474,0.5132268499999935
mp-19802,Tb4 Co4 O12,20,3,10.282207556256736,0,2,62,3.248,53.16600000000001,0.5,7.38391903,4.307113056727947,1.4844723250787295,0.0
mp-1105216,Li2 Ta2 O6,10,3,14.572326093272562,0,2,63,3.5060000000000002,47.168,0.5,5.682455,3.6609238420744044,1.2374081528121013,0.14810256400000732
mp-754145,Tb4 Lu4 O12,20,3,13.6580450791943,0,2,62,3.2560000000000002,76.38,0.0,8.266365,4.671863878936381,1.6224656063699407,0.06626202349999843
mp-982040,K1 Bi1 O3,5,3,15.726802132865865,0,1,221,2.1828000000000003,59.215999999999994,0.5,4.284204,2.8312873701314096,0.49324799934877156,0.09286868350000166
mp-759939,Ag2 Ge2 O6,10,3,11.378514352920584,0,2,51,2.9200000000000004,45.706,0.0,7.139362,3.7527079685295184,1.400315204341901,0.16110908199999407
mp-642216,Mg8 Si8 O24,40,3,9.780150717701408,0,7,14,2.7880000000000003,20.080000000000002,0.5,9.518640764518855,5.302393149104263,2.05283395446457,0.12571657516666956
mp-776024,Ca8 Zr8 O24,40,3,13.569641745033616,0,2,32,3.178,35.86,2.0,11.457092,5.806854936279016,2.2673664325411913,0.02536537675000261
mp-1076070,La1 Cu1 O3,5,3,11.607124936662462,0,1,221,3.152,50.089999999999996,0.5,3.871669,2.558656763550313,0.4457521136693442,0.024221093999997834
mp-1078259,Ga2 B2 O6,10,3,8.593315290339087,0,5,167,3.2840000000000003,25.706,0.0,8.20634182704305,4.093905798724562,2.0629713292848484,0.0
mp-1184813,Ho1 Si1 O3,5,3,10.209659172147202,0,1,221,3.114,48.198,0.0,3.7096,2.451550773081645,0.4270928224669515,0.7570571732499936
mp-1069346,Pr1 V1 O3,5,3,12.194494943041269,1,1,221,3.3620000000000005,47.968,0.0,3.935905,2.601108191051842,0.45314771819381783,0.21204193449999842
mp-865120,Na1 Pa1 O3,5,3,16.208296908923906,0,1,221,1.7826,60.398,0.5,4.32748724,2.8598803786133806,0.4982292825550892,0.0
mp-1016999,Sr1 Ge1 O3,5,3,11.473996926955248,0,1,221,2.6740000000000004,41.65,0.0,3.85681,2.5488369466058387,0.44404137066496735,0.1500441693333272
mp-1187359,Tb1 Os1 O3,5,3,12.453843371533367,0,1,221,4.004,79.42,0.0,3.963612,2.619418822189909,0.4563376742085073,0.7268624563333255
mp-1183451,Be1 Pt1 O3,5,3,8.594749893243854,0,1,221,3.3920000000000003,50.42244,2.0,3.502685,2.314807558661711,0.40327033180468347,1.0812861790000001
mp-1186948,Sb1 Pb1 O3,5,3,14.9935203464664,0,1,221,2.516,75.4,0.5,4.216556,2.786581065759664,0.485459565217263,0.17002349410936546
mp-1187146,Sr1 Au1 O3,5,3,14.14885133111214,0,1,221,2.6660000000000004,66.524,0.5,4.13584,2.7332385565403263,0.47616658908553927,0.2745435900000004
mp-18946,V2 B2 O6,10,3,8.969635938619572,2,5,167,3.7840000000000003,21.95,0.0,8.369438940642278,4.171933298531166,2.105415542774415,0.0
mp-1207696,Tm4 Sc4 O12,20,3,12.266718196540877,0,2,62,2.8240000000000003,52.372,0.0,7.944283,4.486948660604481,1.62721735378346,0.0493298766250021
mp-973968,K1 Na1 O3,5,3,17.502991944950914,3,1,221,1.9694000000000003,22.018,2.0,4.439773,2.9340977276409896,0.5111589340313145,0.6109778246666671
mp-1182337,Ba2 Cl2 O6,10,3,20.371955764759086,3,6,1,2.22,44.15,0.5,9.238585800813304,4.125083520608063,1.6071078729006059,0.5310445151599943
mp-755109,Y4 Er4 O12,20,3,14.143918057869428,0,2,62,3.092,60.842000000000006,0.0,8.37517,4.724859876637535,1.642596575509505,0.09753351487499984
mp-1193069,Ho6 Mn6 O18,30,3,12.756083428374389,6,2,36,2.7720000000000002,53.568000000000005,0.5,12.543845,5.771297862446672,2.53830280689574,0.3159067386666674
mp-973579,Fe1 Pb1 O3,5,3,12.302997448725435,1,1,221,2.822,62.21,2.0,3.947544,2.6088000175150454,0.4544877368914383,0.19825018625000013
mp-975463,Rb1 Ac1 O3,5,3,19.92987984926145,0,1,221,2.5804,72.09400000000001,0.0,4.636158,3.0638820166672027,0.5337690871314257,0.18033347099999908
mp-542903,Zr8 Pb8 O24,40,3,14.850724667250287,0,2,55,3.2159999999999997,69.28399999999999,2.0,11.945823,5.967473822677421,2.3576711142137974,0.02548763781249619
mp-1183043,Zr1 Si1 O3,5,3,9.833519447214963,1,1,221,3.7359999999999998,33.462,0.5,3.663473,2.421066979004134,0.4217821392067797,1.07280004225
mp-1219584,Rb1 N1 O3,5,3,19.060891198269523,0,5,160,2.7144000000000004,29.496000000000002,0.0,5.993357116519729,4.551618216419939,1.813981632986915,0.0
mp-973977,Ho1 Sn1 O3,5,3,16.48342882527635,4,1,221,2.8160000000000003,66.32000000000001,0.0,4.351836,2.8759831006374093,0.5010345913719235,0.8692622737187463
mp-1374707,Al6 Sb6 O18,30,3,12.20000404046669,0,3,185,2.7880000000000003,39.356,0.5,13.101949,5.6755449869077195,2.570741607142255,0.4061038649999986
mp-972442,Sn1 B1 O3,5,3,8.522488904308513,0,1,221,3.35,35.501999999999995,0.0,3.492841,2.3083019877618254,0.4021369746383139,1.128497996062503
mp-1400395,Al2 Ni2 O6,10,3,9.34651059583781,2,3,194,3.1260000000000003,26.734,2.0,11.1539,4.495903909867673,2.323427201426031,0.42044503392424293
mp-974724,Re4 Cl4 O12,20,3,19.128505568056507,0,7,14,3.446,53.92999999999999,0.0,9.664456995246058,4.921527328182298,1.8718096279834475,0.0
mp-973396,K1 Be1 O3,5,3,10.729954867590624,3,1,221,2.4108,19.22244,2.0,3.771574,2.4925073203134125,0.43422799892251723,0.635952091
mp-19025,La1 Mn1 O3,5,3,12.273344840962292,1,1,221,3.0380000000000003,48.368,0.5,3.94437,2.6067024268977925,0.45412230864620695,0.20640463445238133
mp-975380,Rb1 Cd1 O3,5,3,17.81150721081115,3,1,221,1.9624000000000001,49.174,0.5,4.465707,2.95123664228114,0.5141447614137433,0.4030035700000001
mp-1180700,La4 Mn4 O12,20,3,12.433911941290884,2,2,62,3.0380000000000003,48.368,0.5,8.031702,4.758112420567761,1.8290526350947547,0.1682464249523825
mp-13003,Cd4 Ge4 O12,20,3,10.798969700733393,0,2,62,2.5620000000000003,46.606,0.5,7.580681,4.398528204255574,1.5275419838808695,0.11807430712499922
mp-1184447,Eu1 Tc1 O3,5,3,12.494986531863344,1,1,221,3.3019999999999996,59.6,0.0,3.967972,2.622300200605543,0.45683964873566807,0.14644849212500155
mp-552729,K1 I1 O3,5,3,17.472538065826214,0,5,160,1.9688000000000003,42.8,0.5,4.540499760107392,2.802583253621072,0.7349766344806228,0.00570636150000059
mp-756214,Y2 Al2 O6,10,3,10.406847158327306,0,5,167,3.112,32.778,0.5,7.371752672855271,3.7749316674641755,1.812877955282263,0.045807479549997865
mp-3598,Ba6 Ru6 O18,30,3,13.833977609657591,6,3,194,3.2880000000000003,57.279999999999994,0.5,14.252885,6.042852116628746,2.926390921855613,0.02591597716665639
mp-1207172,Sr1 Pu1 O3,5,3,16.611525763066023,1,1,221,2.624,75.924,0.0,4.36308,2.883413884790022,0.5023291330194918,0.09064379800000211
mp-1207184,Dy1 Sb1 O3,5,3,15.331720055125714,0,1,221,2.718,66.46000000000001,0.0,4.248024,2.8073772162145203,0.4890825318275149,1.0392703892000013
mp-33365,Ce1 Ga1 O3,5,3,11.812622150901923,1,1,221,2.986,51.564,0.0,3.894384,2.5736683485758007,0.4483673318767889,0.22402289890000127
mp-4126,K1 U1 O3,5,3,15.888786795898062,1,1,221,2.8568000000000002,65.02000000000001,0.5,4.29886276,2.8409748551460794,0.4949356883670662,0.0
mp-1186126,Na1 Co1 O3,5,3,10.660078558250955,4,1,221,2.6606,25.984,2.0,3.763369,2.4870849097858256,0.43328334273092206,0.22220779324999995
mp-1076932,Ba1 Ti1 O3,5,3,25.171257660190697,0,2,38,2.91,46.634,2.0,8.881493,4.434779378699505,1.1568896268007047,0.9790563579999692
mp-762225,Ba2 C2 O6,10,3,16.49460009684019,0,7,4,3.414,39.462,0.5,7.191242987494891,3.8163652258045104,1.6761739742611401,0.01323683400000153
mp-561362,Fe4 Si4 O12,20,3,11.513811916473868,4,7,15,3.342,26.387999999999998,0.5,7.821422021294747,4.213109915144456,1.4896519501220498,0.08408383366667138
mp-1184965,La1 Zn1 O3,5,3,12.122092725008201,0,1,221,2.724,50.456,0.5,3.9281,2.5959501271678915,0.45224911471113644,0.1304627797500011
mp-1180703,Mg4 Si4 O12,20,3,10.874631203548129,0,7,15,2.7880000000000003,20.080000000000002,0.5,11.503717293656948,5.166588181293529,2.6241359770032564,0.40248599716667055
mp-1178561,Ag1 Cl1 O3,5,3,15.368811637506255,0,5,160,2.43,38.27,0.0,5.092962495826656,3.115288726729487,1.4611315907566051,0.09281757449999795
mp-1416557,Al1 Ni1 O3,5,3,9.801753914179328,1,1,221,3.1260000000000003,26.734,2.0,3.659524,2.4184572167648364,0.42132748383802787,1.3616036539242442
mp-1372100,Sr6 Cr6 O18,30,3,12.157705794022284,6,2,63,2.724,37.524,0.5,13.685607,5.7821457798822395,2.8046270071554718,0.16905102793750437
mp-540926,Ba6 Cr6 O18,30,3,13.215695680565549,6,3,194,2.7600000000000002,47.46,2.0,13.952037,5.901684998157217,2.8662547787955193,0.08378661462500236
mp-776154,Al4 Fe4 O12,20,3,9.149195621973229,4,2,62,3.0940000000000003,26.165999999999997,2.0,7.339769000007161,4.096510378601452,1.4321738276842182,0.08031608350001385
mp-975361,Rb1 Er1 O3,5,3,18.155141898071392,4,1,221,2.3884,60.153999999999996,0.0,4.494243,2.970095131838142,0.5174301616676567,0.2482169909999996
mp-862870,Li1 Tc1 O3,5,3,11.447608137686533,0,1,221,3.2560000000000002,30.588,0.5,3.853851,2.54688144230954,0.4437006957507772,0.06527020858333188
mp-674478,Ba2 C2 O6,10,3,17.72171227211266,0,5,167,3.414,39.462,0.5,12.044426461100159,7.276524908484715,4.4091416408996045,0.04990687100000191
mp-979272,Te1 Pd1 O3,5,3,13.436594385310425,1,1,221,2.7760000000000002,56.4,0.0,4.065242,2.6865826956717633,0.4680385162257909,0.6204443039999958
mp-1181984,Co2 C2 O6,10,3,23.914484629654737,4,7,15,3.9120000000000004,23.788,0.5,7.601198807349477,4.434669770892395,1.9272226498840341,0.42150147699999874
mp-770614,Tl4 Co4 O12,20,3,11.417144425038034,4,6,2,2.814,62.266,0.5,7.925259878730904,4.447393660173475,1.6187823000186483,0.0990235644999995
mp-768221,Y2 Bi2 O6,10,3,16.01128660769623,0,5,161,2.87,69.178,0.0,8.81663915474864,4.6314793625176724,2.218217227115373,0.03302222387500109
mp-23011,Rb1 Cl1 O3,5,3,19.12856493822643,0,5,160,2.0103999999999997,33.784000000000006,0.0,5.057170222420773,2.7887784461512473,1.0721977394623075,0.06517111399999909
mp-18840,Ba3 Mn3 O9,15,3,13.105401301211401,3,5,166,2.524,48.048,2.0,12.132887127638789,4.909435618992796,2.9566595763534766,0.0
mp-1185356,Li1 Mg1 O3,5,3,12.512547057038818,3,1,221,2.188,15.85,2.0,3.96983,2.6235280907652325,0.45705356356857285,0.5801049234285722
mp-754300,Ho2 Bi2 O6,10,3,15.71470142482774,0,5,148,2.624,84.376,0.0,8.761219043361725,4.629800621095012,1.7522791057425315,0.04968020787500116
mp-3382,Ca2 Si2 O6,10,3,9.400639676203232,0,4,127,2.854,23.234,0.5,5.092994,3.11773535018055,0.9893031895850425,0.2437157516666577
mp-1186167,Na1 Si1 O3,5,3,9.033119347393699,0,1,221,2.7086,19.816,0.5,3.561251,2.3535118724896975,0.41001313918030335,0.25493713337500346
mp-1184349,Fe1 Rh1 O3,5,3,11.849587371275394,3,1,221,3.5660000000000003,41.35,0.5,3.898442,2.5763501452754896,0.4488345366087199,1.0378761892499977
mp-22136,Co4 Ge4 O12,20,3,10.976934958610187,4,7,15,3.2079999999999997,35.912,0.5,6.963290228412638,4.13204415358235,1.4339660312088505,0.0201147590000037
mp-22994,Li4 I4 O12,20,3,14.030142503584297,0,2,33,2.108,36.368,0.5,9.33360494,4.7848839985604865,1.9283549417833008,0.0016667354999988504
mp-1178420,Co4 Pb4 O12,20,3,12.713632816107097,4,5,148,2.8440000000000003,62.826,2.0,9.755044692135234,4.9178468695718305,1.8384650325577518,0.04938460399999833
mp-675976,K2 P2 O6,10,3,17.745227608604672,0,6,2,2.4328000000000003,23.613999999999997,0.5,7.563105079856902,4.34470122909645,1.4506022249346482,1.4928622199999992
mp-975521,Nd1 Mg1 O3,5,3,11.94430848036471,2,1,221,2.5420000000000003,43.302,0.5,3.908802,2.583196723345666,0.4500273017695883,0.27795437300000003
mp-1183570,Ca1 Hg1 O3,5,3,14.720029371258338,0,1,221,2.0620000000000003,57.736000000000004,2.0,4.190761,2.7695340115781786,0.4824897411511817,0.4621564882499989
mp-776593,Lu4 Sc4 O12,20,3,12.153644073530677,0,2,62,3.2260000000000004,53.592000000000006,0.0,7.942178,4.475454202038576,1.6137340863791767,0.06345934650000018
mp-1040472,K1 W1 O3,5,3,12.96533722034611,1,1,221,3.5268,54.17999999999999,0.5,4.017149,2.6547996378407803,0.46250148390130763,0.06768372483333351
mp-5537,Nb8 Ag8 O24,40,3,12.84375819520931,0,2,57,3.664,49.762,0.0,15.762602,6.5339735541707675,3.1330530225922537,0.03844215303571552
mp-755798,Zr4 Pb4 O12,20,3,14.58182095237768,0,2,62,3.2159999999999997,69.28399999999999,2.0,8.354309,4.854976744207329,1.8103837903296438,0.03458715231249698
mp-975364,Rb1 Cu1 O3,5,3,13.24737560156027,4,1,221,2.4284000000000003,39.403999999999996,0.5,4.046069,2.673911900175674,0.4658310947557784,0.42785651049999895
mp-1504314,Al1 Cu1 O3,5,3,10.123603283383186,0,1,221,2.9360000000000004,27.706,2.0,3.699148,2.444643395283433,0.4258894651830328,1.3312055622727241
mp-1187487,Th1 Cu1 O3,5,3,11.576662329435333,0,1,221,3.498,68.71000000000001,0.5,3.868279,2.556416425745496,0.4453618169612994,0.530382224000002
mp-22013,La4 Ti4 O12,20,3,12.539357329391096,0,2,62,3.4240000000000004,46.954,0.5,7.938288,4.655191951459907,1.6136824979446198,0.025448954749990094
mp-1347073,Y6 Sb6 O18,30,3,15.543833816087922,0,3,185,2.9840000000000004,51.742,0.0,12.653419,5.83811554607636,2.454078552935742,0.239881719083332
mp-5924,Mg2 Si2 O6,10,3,9.081105492543923,0,5,148,2.7880000000000003,20.080000000000002,0.5,7.926664064464625,3.834339892199036,1.5529794832853356,0.11707234016666934
mp-650392,Fe18 Si18 O54,90,3,11.612738846836363,18,6,2,3.342,26.387999999999998,0.5,20.940866641262392,8.429459274660198,4.232187374794648,0.0230683978888937
mp-1180468,Mg4 Si4 O12,20,3,16.077889236979637,4,7,15,2.7880000000000003,20.080000000000002,0.5,8.38007378469295,5.4720143804647225,2.1331065814592867,1.6662845356666693
mp-1196581,K48 P48 O144,240,3,17.32598929221153,0,1,205,2.4328000000000003,23.613999999999997,0.5,16.0806313,10.722102190210924,4.0178583861621995,0.009890444624998551
mp-1181394,Fe4 Bi4 O12,20,3,12.314581441034987,2,7,11,2.8520000000000003,62.565999999999995,0.5,7.876305,4.448351268377889,1.4689497334890862,0.2566392445000014
mp-1186138,Na1 In1 O3,5,3,15.232937824577352,3,1,221,2.2866,37.158,0.5,4.238881,2.801334912807607,0.4880298820335167,0.4088390322499986
mp-1185414,Li1 Si1 O3,5,3,8.638749529451134,0,1,221,2.8120000000000003,16.606,0.5,3.508652,2.3187509497181535,0.4039573230899057,0.32128618968888834
mp-1186927,Sb1 Pd1 O3,5,3,12.736888012231951,1,1,221,2.8880000000000003,55.239999999999995,0.0,3.993415,2.6391146297406296,0.4597689464179051,0.5066706527499978
mp-1333178,Al6 Ni6 O18,30,3,9.321217068918164,6,3,185,3.1260000000000003,26.734,2.0,11.029357,5.00736971340766,2.151708438231372,0.4099173905909108
mp-4551,Sr1 Hf1 O3,5,3,14.203994627729838,0,1,221,3.192,62.824,0.0,4.141206,2.7367847667647047,0.4767843861756185,0.032957558999981984
mp-1147748,Ti1 Cu1 O3,5,3,12.172948349113785,0,4,123,3.228,31.883999999999997,2.0,4.013939,2.451464780854086,0.5009120590550061,0.24939630000000257
mp-780422,La12 Al12 O36,60,3,15.713484578567062,0,7,14,3.132,42.775999999999996,0.5,16.28074203705927,7.25870024971546,3.176342449017108,0.03581025633333468
mp-19024,Ho4 V4 O12,20,3,11.13154182543083,4,2,62,3.25,52.76800000000001,0.0,7.52519119,4.345917117324158,1.5928991961972432,0.0
mp-1404877,Al2 Ag2 O6,10,3,11.648724396800377,0,3,194,2.8280000000000003,36.576,0.5,11.579135,4.745256956957765,2.4225727002133954,0.5740665725909109
mp-769144,Sn12 Ge12 O36,60,3,16.17994344954805,0,7,13,2.958,47.866,0.0,15.438871489004246,7.113019105152121,3.0298617954647256,0.0748553726666703
mp-22334,Fe4 Ge4 O12,20,3,11.289206515238636,4,7,15,3.1860000000000004,35.296,0.5,7.138293127602651,4.171494650897505,1.4519155291101287,0.012197311499996921
mp-22616,Co4 Se4 O12,20,3,11.731524856671477,4,2,62,2.93,37.18,0.5,7.660772,4.4267519848266215,1.639537730708008,0.029257131125000058
mp-22599,Nd4 Co4 O12,20,3,10.867839926205567,0,2,62,3.118,50.226,0.5,7.57320125,4.438741779121957,1.5404939391037096,0.0
mp-766856,Cu8 P8 O24,40,3,13.4953709320229,0,7,14,2.944,28.503999999999998,0.5,14.206051312199161,6.225126421794681,2.881648963619253,0.10602788575000233
mp-1184765,In1 Sb1 O3,5,3,13.84717177483384,0,1,221,2.614,56.92,0.0,4.106234,2.7136729397115955,0.4727579978352813,0.45820184049999924
mp-1379617,Zn4 Mo4 O12,20,3,11.305650652695496,4,2,62,3.194,41.866,0.5,7.97055,4.433865967980005,1.5894191942521327,0.08622597749999716
mp-779706,Ag4 Ge4 O12,20,3,14.6127946841902,0,2,18,2.9200000000000004,45.706,0.0,10.407899380477403,5.356332581887107,2.169040009940006,0.13956628549999373
mp-1399298,Ca1 Co1 O3,5,3,19.560885472992567,2,7,8,2.806,29.401999999999997,2.0,9.807896921332368,2.7510249633936095,0.8196908030370934,0.4831187526666678
mp-755583,Lu4 V4 O12,20,3,11.26204707868989,4,2,62,3.508,54.788,0.0,7.593422,4.378641421077702,1.5065595477141107,0.005773750249996823
mp-1183532,Ca1 Mg1 O3,5,3,12.280888931067155,3,1,221,2.23,22.478,2.0,3.945178,2.607236407117937,0.4542153351182128,0.31067006799999763
mp-1185514,Lu1 Ge1 O3,5,3,11.646220229763,0,1,221,3.2159999999999997,59.126,0.0,3.876011,2.5615262463669835,0.446252015824604,0.8114217970625255
mp-22081,Ho4 Mn4 O12,20,3,11.632469014813164,4,2,62,2.7720000000000002,53.568000000000005,0.5,7.477837,4.428719107513491,1.509082625203007,0.028599068666666838
mp-755342,Lu2 Ga2 O6,10,3,12.121093888475164,0,3,194,3.008,58.544000000000004,0.0,11.705323,4.738527036273936,2.4156988983071526,0.021206369333333974
mp-4525,Sr2 Ru2 O6,10,3,12.17170792137346,2,4,140,3.2520000000000002,47.344,0.0,7.358852426003759,3.664868159634378,1.3017130424627859,0.006622184999985237
mp-643577,Mn16 Ge16 O48,80,3,12.132473170913915,16,2,61,2.914,35.114,0.5,19.25117844,8.124115070402071,3.9068425199950516,0.01491164224998709
mp-1185320,Li1 Fe1 O3,5,3,10.775783891888704,4,1,221,2.742,22.157999999999998,2.0,3.776936,2.4960508870713545,0.4348453354855072,0.3148129761000025
mp-20472,La4 Ru4 O12,20,3,12.831195662485175,4,2,62,3.8020000000000005,57.6,0.0,7.92462,4.623853737250459,1.5924931775419127,0.0444983944999926
mp-556932,Tl24 P24 O72,120,3,16.938950646991444,0,2,60,2.6220000000000003,56.674,0.0,16.272151,8.595357352125479,3.3687413606094703,0.012447569749998166
mp-1183291,Ba1 Er1 O3,5,3,16.984210492406792,3,1,221,2.598,70.52000000000001,0.5,4.395468,2.904818032525241,0.5060580208602453,0.08670264150000229
mp-1016900,Ca1 Os1 O3,5,3,12.34623501473248,1,1,221,3.5620000000000003,55.65599999999999,0.5,3.952163,2.6118525603824336,0.45501953054762084,0.25662067559999535
mp-1369924,Y4 W4 O12,20,3,13.128131140010533,4,2,62,4.214,64.14200000000001,0.0,8.014148,4.597169554925324,1.6034536542773543,0.21914667675000388
mp-1176491,Mg2 Sn2 O6,10,3,11.311787770386657,0,5,148,2.49,38.202,0.5,8.14043145060974,4.0619923829266895,1.658345564528738,0.00359464899999562
mp-555174,Ba6 Tc6 O18,30,3,13.542807292648973,6,3,194,3.31,56.660000000000004,0.5,13.951183650003244,5.946569507811645,2.853349518877192,0.0
mp-551918,Al2 Bi2 O6,10,3,11.36752137295987,0,5,161,2.6740000000000004,56.791999999999994,0.5,7.753134971073859,4.170509092776429,1.7962706606499697,0.05333506425000145
mp-657338,Mg16 Si16 O48,80,3,11.025811190593922,0,2,61,2.7880000000000003,20.080000000000002,0.5,19.581675,8.105265049353928,4.038200370915071,0.13317119379166975
mp-1198795,K8 Si8 O24,40,3,16.755559348420256,16,2,64,2.6728,23.038,0.5,11.261609,6.216436790813846,2.3301232109876344,0.1505444512499956
mp-755877,Ba1 Nd1 O3,5,3,18.923568491923373,4,1,221,2.62,65.9,0.5,4.556776,3.0114211035043907,0.5246296967839296,0.17852335125000085
mp-3470,Mg8 Si8 O24,40,3,10.363428766688944,0,7,14,2.7880000000000003,20.080000000000002,0.5,9.482353817547711,5.319306340700967,2.0536092643272728,0.007678037916668323
mp-28109,Sb4 As4 O12,20,3,16.438301207055428,0,7,14,2.7020000000000004,48.944,0.5,13.18079052,5.582073554040258,2.5565827307071536,0.0
mp-627684,V4 H4 O12,20,3,14.13312945561934,6,6,1,2.622,19.989600000000003,0.0,13.157127710407691,5.677418987185281,2.7885974185712317,0.29757077874999815