id,composition,Natom,Nelem,D,Nmag,CS,SG,E,M,MR,MSVL,dmean,dstd,ehull
mp-976331,Li1 Lu1 O3,5,3,9.564832448589465,3,1,221,2.772,45.988,0.5,3.629798,2.398812295943016,0.4179050767750958,0.5373579508392856
mp-1069079,Fe2 Bi2 O6,10,3,13.73487563902953,2,4,99,2.8520000000000003,62.565999999999995,0.5,5.305304207159013,3.502643556772941,1.0469697557211781,0.026811494000001268
mp-1378105,Zn4 Bi4 O12,20,3,13.297250356900927,0,7,14,2.2660000000000005,64.47200000000001,0.5,10.58979692446253,4.987001804470159,2.0346480636821793,0.0806278960000002
mp-19082,Ti2 Mn2 O6,10,3,10.783263051258718,4,5,148,3.114,30.162,2.0,8.178301063936889,4.063543612149781,1.6603962754769837,0.0
mp-1194970,K8 As8 O24,40,3,16.059863304592884,0,2,60,2.3388,32.404,2.0,11.51034733,6.36100674373606,2.5678107471051708,0.0
mp-20489,Sr4 Pb4 O12,20,3,14.845188524341973,0,2,62,2.31,68.564,0.5,8.3694263,4.833290961623613,1.760398730816055,0.0
mp-504651,Cs4 V4 O12,20,3,19.37810959090685,0,2,57,2.7828000000000004,46.368,0.0,12.27054304,5.329859523394239,2.306905340180577,0.0
mp-1178574,Al2 Pd2 O6,10,3,10.652686856388705,2,3,194,3.0160000000000005,36.275999999999996,0.5,11.864006,4.740473123671572,2.4651251868859783,0.15443915827273358
mp-1212207,In4 Rh4 O12,20,3,12.17544016664564,0,2,62,3.214,53.14,0.0,8.244579,4.460116900046628,1.6227668953662333,0.3344170647499993
mp-1076706,Sm1 Cu1 O3,5,3,11.053300774843139,0,1,221,2.6860000000000004,52.39,0.5,3.809085,2.517297087687001,0.4385467068326848,0.1243862085000007
mp-542479,Dy6 Mn6 O18,30,3,12.421633801154444,6,3,185,2.7520000000000002,53.088,0.5,11.42852703000001,5.388361022853728,2.239589740157132,0.0
mp-546973,Sr1 Sn1 O3,5,3,13.934611673250629,0,1,221,2.532,50.864,0.0,4.114859,2.7193729142150005,0.4737510093712361,0.047734773500000216
mp-1097023,K4 Fe4 O12,20,3,19.03447959680441,4,2,62,2.6028000000000002,28.589999999999996,2.0,13.329225,5.615804400637912,2.620119951805527,0.16200466933333502
mp-1205364,Ca4 Ti4 O12,20,3,11.251449585587958,0,2,63,2.898,27.189999999999998,2.0,7.68509595,4.448296919812687,1.543222394702292,0.011449592499999994
mp-1424898,Y1 Bi1 O3,5,3,17.13621662627167,0,1,221,2.87,69.178,0.0,4.408542,2.913458202572488,0.507563253651094,1.099079481875
mp-1183397,Co1 B1 O3,5,3,7.5510504763198965,4,1,221,3.6,23.548,0.5,3.354742,2.217036969913054,0.38623739201758295,1.2271476224722182
mp-776172,Al4 Cu4 O12,20,3,9.921438031256455,0,7,14,2.9360000000000004,27.706,2.0,6.781667,4.097700549654648,1.49002842717494,0.12430144427272438
mp-1213788,Ce4 Tm4 O12,20,3,14.69685334595413,4,2,62,2.9080000000000004,71.4,0.0,8.395389,4.777795772350871,1.7283783410295992,0.06684380087499875
mp-865181,Eu1 Ge1 O3,5,3,11.31836502537391,1,1,221,2.7020000000000004,54.525999999999996,0.0,3.841185973228206,3.133552259183942,1.112118072338526,0.09222758000001008
mp-19785,Ho4 Fe4 O12,20,3,11.196862750504348,16,2,62,3.044,53.75,0.5,7.60683986,4.389890484504406,1.5122201291904285,0.012266279374999911
mp-1185297,Li1 Ac1 O3,5,3,12.042132096013496,3,1,221,2.7359999999999998,56.388,0.5,3.919444,2.5902296657996056,0.4512525340902409,0.12925668721428352
mp-1099668,Sm1 Ni1 O3,5,3,10.463354786130989,0,1,221,2.8760000000000003,51.418000000000006,0.5,3.74008343,2.471690724850572,0.43060147052688263,0.12265020300000096
mp-1384488,Al2 V2 O6,10,3,10.54457148889399,2,3,194,3.3,25.184,0.5,12.057972,4.836711527806906,2.532092773998309,0.32760301362498545
mp-768539,Al4 Tl4 O12,20,3,10.714140095870967,0,2,62,2.614,55.876,0.5,7.612391,4.376450675765168,1.5236251142689925,0.08892911613636478
mp-20011,Na4 Sb4 O12,20,3,14.003671720828152,0,1,227,2.3326000000000002,38.558,0.5,10.385896,4.555443010600263,1.722887290754359,0.05513724699999756
mp-561922,La2 Co2 O6,10,3,11.320636655932361,2,6,2,3.332,49.166000000000004,0.5,7.607637635083308,3.7368596906699567,1.4162788110266558,0.011411500499999505
mp-1186801,Pu1 Sb1 O3,5,3,16.076246043681586,1,1,221,2.83,82.76,0.0,4.315703,2.8521040074511474,0.4968745350439642,0.6560198416666676
mp-975427,Rb1 Al1 O3,5,3,12.270544604107428,3,1,221,2.4084000000000003,32.089999999999996,0.5,3.94407,2.606504166915065,0.45408776911452153,0.4014505845555556
mp-1076638,Rb1 V1 O3,5,3,12.00293697178849,0,1,221,2.7923999999999998,36.882,0.0,3.915187,2.5874163566447077,0.4507624181356255,0.35739358500000584
mp-1216763,Ti2 V2 O6,10,3,10.387320059980844,4,5,161,3.592,29.362000000000002,0.5,7.266597224825007,3.2972932790737874,0.9119722398777489,0.0
mp-1183983,Ga1 Ni1 O3,5,3,9.89685189318132,1,1,221,3.0100000000000002,35.282,0.5,3.671321,2.426253460152275,0.42268569335566925,1.0009901721666647
mp-753790,Hf4 Fe4 O12,20,3,11.78527261671935,4,2,62,3.7040000000000006,56.470000000000006,0.5,8.7772,4.452803546714514,1.7007264958442603,0.09619258399999708
mp-768358,Sc2 In2 O6,10,3,13.26643819656345,0,3,194,2.8440000000000003,41.552,0.0,12.748711,5.111214508795198,2.6566513998263876,0.07364593187499935
mp-998624,Na2 Os2 O6,10,3,10.994323616993226,2,5,167,3.4166,52.238,0.5,7.582969303850603,3.8698710228584794,1.8700850467891141,0.009487059000000464
mp-1187191,Sr1 Sc1 O3,5,3,14.190827815362303,3,1,221,2.684,36.116,0.0,4.139926,2.7359388575050687,0.4766370175070941,0.09125746724999928
mp-772217,Er6 In6 O18,30,3,13.725399589831644,0,3,185,2.7220000000000004,66.02000000000001,0.0,12.217418890000028,5.81445797357661,2.454662199261529,0.018542877708334515
mp-5096,Ca2 Si2 O6,10,3,9.399326291098973,0,2,74,2.854,23.234,0.5,6.648026525285787,3.0720475469434416,0.851905592106103,0.2411090466666579
mp-1017566,Ge1 Pb1 O3,5,3,11.758588617745975,0,1,221,2.7359999999999998,65.566,0.5,3.888437,2.5697381748515404,0.4476826432270124,0.2177559430000091
mp-27556,Cs8 Nb8 O24,40,3,19.239397144395834,0,7,14,3.2348,54.762,0.0,16.04611897,7.426281128291845,3.4134872332912924,0.0
mp-5735,Ba2 Tb2 O6,10,3,17.447420786847704,6,2,74,2.75,68.84,0.5,8.197375002094317,4.434044831836262,1.7335465003319694,0.09176680975000018
mp-19053,La1 V1 O3,5,3,12.326611592958944,1,1,221,3.5159999999999996,47.568,0.0,3.950068,2.610468044836389,0.4547783294846845,0.1772593870000012
mp-1184935,K1 Pb1 O3,5,3,16.585314923876474,3,1,221,2.1528,58.85999999999999,2.0,4.360784,2.8818965350555503,0.5020647904703263,0.15114649699999827
mp-1184044,Cu1 Hg1 O3,5,3,11.251522504220887,0,1,221,2.3920000000000003,62.42999999999999,2.0,3.83172,2.5322558033837614,0.44115271449834675,0.32301210825000126
mp-547069,Fe2 Bi2 O6,10,3,12.278943566765976,1,1,221,2.8520000000000003,62.565999999999995,0.5,7.892021,3.8677406067044178,1.3955083027630126,0.25531275500000206
mp-675069,Li14 Nb14 O42,70,3,11.118851200022315,0,6,1,3.4,29.57,0.5,30.296809897118884,11.009647106317349,6.6808470193657445,0.006859243142860905
mp-882825,Mn6 In6 O18,30,3,11.652039410302248,6,3,185,2.648,43.548,0.5,11.539087830148674,5.414942095545125,2.322207889019868,0.014556675354167048
mp-772188,Dy6 Er6 O18,30,3,15.073037881000975,0,3,185,2.826,75.56,0.0,12.700567,5.890565472797057,2.521839713931597,0.08419320666666863
mp-31271,Rb8 C8 O24,40,3,16.629769550407538,0,7,14,3.2043999999999997,29.096000000000004,0.0,10.710959,5.945894302585678,2.230903279191929,0.057538880499998335
mp-38685,Ce4 Sb4 O12,20,3,16.572028269491106,4,1,227,2.974,61.98,0.0,10.985551999999998,5.5053876929997605,2.4518978588825058,0.45807500866667183
mp-1186662,Pu1 Ga1 O3,5,3,11.621854164681466,1,1,221,2.842,72.34400000000001,0.0,3.873306,2.5597386021893933,0.44594058438057405,0.26899824050001087
mp-4682,Zn4 Se4 O12,20,3,12.041966460503534,0,2,62,2.322,38.47,0.5,7.810489,4.461039648680892,1.6520669912879522,0.062141492750002136
mp-1199904,Fe8 B8 O24,40,3,10.05277322431685,12,7,14,3.5780000000000003,22.932,0.5,12.434321148766264,6.224031140206385,2.743050670743654,0.0919413762500021
mp-20882,Ce4 B4 O12,20,3,12.047149437603935,4,2,62,3.586,39.782,0.0,8.22244861,4.309027863286014,1.6586337693807283,0.0
mp-1418929,Y1 Ag1 O3,5,3,13.329571920722183,0,1,221,3.024,48.962,0.0,4.05442,2.679430797228188,0.4667925601861272,0.5836710146249988
mp-982885,K1 Ca1 O3,5,3,19.072187394286495,3,1,221,2.1148000000000002,25.436,2.0,4.568674,3.0192840944193478,0.5259995346105716,0.4395822959999993
mp-758652,Zn2 Co2 O6,10,3,9.665191092533513,2,5,148,2.708,34.462,2.0,7.923821297243997,3.8437780188689183,1.5292401129936615,0.08257511644736759
mp-1178178,Ho4 Tm4 O12,20,3,13.731134763447013,0,2,62,2.672,76.36,0.0,8.333221,4.672025332225533,1.627260705107156,0.09600759112500157
mp-1181856,Fe1 Bi1 O3,5,3,21.83877638315665,1,7,8,2.8520000000000003,62.565999999999995,0.5,10.336117733177739,4.677517933912446,1.8300698005010088,0.4156844290000006
mp-1099583,Sm1 Ti1 O3,5,3,11.990083857817636,0,1,221,2.958,49.254000000000005,0.5,3.913789,2.5864924651251995,0.45060146391797146,0.19623799524999264
mp-1192969,Sr6 Cu6 O18,30,3,11.784527132863124,0,2,51,2.6020000000000003,39.834,0.5,10.816168,5.523496314956902,2.201749434646665,0.04576981479166342
mp-1398131,Al2 Fe2 O6,10,3,10.52782827603756,4,3,194,3.0940000000000003,26.165999999999997,2.0,11.964116,4.806921453946433,2.510489051415052,0.2655445505000138
mp-4190,Ca2 Sn2 O6,10,3,13.453390939302432,0,5,148,2.556,41.356,0.5,8.839150925363311,4.365729866684851,1.7363839230137046,0.014870770500000852
mp-22593,Ce1 V1 O3,5,3,12.04979323387416,2,1,221,3.4859999999999998,47.808,0.0,3.920275,2.5907840275094522,0.45134911128942673,0.2658328632999982
mp-680932,Os4 Pb4 O12,20,3,13.808463245598455,0,1,227,3.6,89.08,0.5,10.33722758192267,4.540650153405239,1.730912935325455,0.0
mp-17272,Nb4 Cu4 O12,20,3,13.95973689888928,0,7,12,3.772,40.891999999999996,0.5,6.846298553911685,4.647579914924743,1.50536623352634,0.017718185285716004
mp-756102,Mg4 Co4 O12,20,3,9.116834877196954,4,2,62,2.7399999999999998,26.248,2.0,7.191459,4.095244465731536,1.436578501108009,0.0925055432500006
mp-1193907,Sr6 Ir6 O18,30,3,12.809238000879423,6,7,15,3.2920000000000003,65.564,0.0,14.322040987850162,6.266357640158079,3.0523170160307505,0.0034682963333318995
mp-611033,Sr4 Ru4 O12,20,3,17.677074673160654,2,2,62,3.2520000000000002,47.344,0.0,13.16028,6.111090954703117,2.872083506456829,0.5097280284999908
mp-1078295,Na2 Nb2 O6,10,3,12.943938864437822,0,5,148,3.2966,32.779999999999994,0.5,7.787294165844126,3.61749644844619,0.9864973995035095,0.003141929999998183
mp-977412,Eu1 Ni1 O3,5,3,10.909073531652103,5,1,221,2.8200000000000003,51.738,0.5,3.792445,2.5063002673117376,0.43663091414186905,0.2077995360833409
mp-979294,Sr1 Ag1 O3,5,3,13.887819896151916,0,1,221,2.494,48.704,0.0,4.110248,2.716325658280485,0.4732201367692318,0.1135589189999946
mp-1178556,Ag2 Pb2 O6,10,3,14.641846842959492,2,5,148,2.556,72.62,0.5,8.769690683697124,4.424830028120876,1.8238543582624474,0.1113833959999937
mp-867195,Sr1 Os1 O3,5,3,12.726776871134788,1,1,221,3.5380000000000003,65.164,0.0,3.992358,2.6384160937348207,0.4596472521346002,0.09691866781817993
mp-1251647,Al6 W6 O18,30,3,10.87252634898166,6,3,185,4.018000000000001,51.75599999999999,0.5,11.993558,5.305598481787776,2.3062594819017255,0.5481336065833329
mp-754654,Ni4 Sn4 O12,20,3,11.55334088234007,4,5,148,3.076,45.077999999999996,0.5,10.066905759571233,4.640963909625378,1.8820341464332753,0.026179026000000327
mp-757023,V4 Cr4 O12,20,3,9.954120686197722,8,6,1,3.442,30.188,0.5,7.404541187259864,4.026070535018106,1.3862940772656291,0.013253611625001938
mp-1185263,Li1 Pa1 O3,5,3,16.10418249203608,0,1,221,1.886,57.188,0.5,4.31820142,2.853755129804631,0.49716218256647554,0.0
mp-1016871,Zr1 Hg1 O3,5,3,14.659511410601104,0,1,221,2.944,67.964,2.0,4.18501,2.7657333677092995,0.4818276183287731,0.34979274050000164
mp-756933,Ta4 Tl4 O12,20,3,15.187688586468719,0,1,227,3.556,86.66,0.0,10.670724079999998,4.6957916272299345,1.8078714679891221,0.004274724750001013
mp-770779,V4 Cr4 O12,20,3,9.950238155073169,8,6,1,3.442,30.188,0.5,9.071687215715755,4.505015452737392,1.7674034028622574,0.009381443625002817
mp-1100803,Zr4 Pb4 O12,20,3,15.285927621792942,0,7,6,3.2159999999999997,69.28399999999999,2.0,8.444351887194875,4.735273048866372,1.8116830461709206,0.0360627058124976
mp-1183443,Be1 Sb1 O3,5,3,9.156340653210727,0,1,221,2.774,35.76244,0.5,3.577371,2.3641650422282345,0.4118690633495311,0.8188777727500014
mp-1207083,Fe1 Sn1 O3,5,3,13.049086486880913,1,1,221,3.044,44.510000000000005,0.5,4.02578,2.6605035775438393,0.4634951862278962,0.7771393140000011
mp-1078329,Zn2 Pb2 O6,10,3,12.845820493772402,0,5,161,2.2359999999999998,64.116,2.0,7.879341236154023,3.630816385544607,1.2127423507711286,0.02254505799999862
mp-1186999,Si1 Ag1 O3,5,3,9.497944464646972,0,1,221,3.076,36.798,0.0,3.621317,2.3932074862313195,0.4169286442143501,0.4860400653333361
mp-19012,Ca4 Mo4 O12,20,3,11.927211957531167,4,2,62,3.2920000000000003,36.806,0.5,7.807307138596008,4.515643916277849,1.606219483725702,0.006362272499998767
mp-18732,Ti2 Ni2 O6,10,3,10.019293107218305,2,5,148,3.418,30.912,2.0,7.924632685094234,3.9689527896020436,1.6411966669678075,0.0
mp-849371,Cd4 Sn4 O12,20,3,12.140377185118805,0,2,62,2.4200000000000004,55.82000000000001,0.5,7.91411222,4.530387189987694,1.572377024157098,0.03038325250000007
mp-1183919,Cs1 Pr1 O3,5,3,21.501374087106974,3,1,221,2.4608000000000003,64.36,0.0,4.754944,3.142383717694612,0.5474451298340243,0.2804663158749996
mp-1253488,Al4 Ag4 O12,20,3,12.395978859704986,0,2,62,2.8280000000000003,36.576,0.5,10.013828029375054,4.760216647152253,1.8894931610215069,0.19385093709091006
mp-1443298,Y2 Ti2 O6,10,3,13.009900526231206,1,3,194,3.404,36.956,0.5,12.110846,4.890362091413606,2.5026154349538774,0.07797280824996733
mp-1016877,Hg1 Rh1 O3,5,3,12.52083210458493,2,1,221,2.8440000000000003,70.3,0.5,3.970706,2.624107009914796,0.45715441900109405,0.409349452499999
mp-7006,Sr1 Nb1 O3,5,3,13.480745345158914,0,1,221,3.4180000000000006,45.706,0.0,4.06969111,2.6895220695383046,0.4685505943342283,0.013055290500011196
mp-752429,Sc4 Tl4 O12,20,3,12.819374973634899,0,2,62,2.716,59.472,0.0,8.177845,4.6029761813988275,1.6069835949998719,0.0787690023749974
mp-975564,Pu1 B1 O3,5,3,9.045985514939039,1,1,221,3.442,60.562,0.0,3.562941,2.3546287370590604,0.4102077118754643,0.7867055536666676
mp-775774,Ag2 Bi2 O6,10,3,14.926590686018258,1,2,65,2.5860000000000003,72.976,0.0,7.60669962883723,3.955535015056258,1.3241804997526871,0.02791784999999347
mp-891880,Ag16 Ge16 O48,80,3,15.133726266386034,16,2,55,2.9200000000000004,45.706,0.0,12.646994,7.160333948884684,2.6643505452523195,0.133380353624994
mp-1182285,Ba2 Bi2 O6,10,3,20.77249421635248,0,6,1,2.3760000000000003,78.856,0.5,14.5483624141786,4.925886549926601,2.10920834289471,0.6431988129999988
mp-1183310,Ba1 Eu1 O3,5,3,17.473500282778964,3,1,221,2.3120000000000003,67.46000000000001,0.5,4.437278,2.9324488654513097,0.5108716802594645,0.16508361100000002
mp-17464,Sr6 Ge6 O18,30,3,16.020062125603577,0,7,15,2.6740000000000004,41.65,0.0,12.123791231514575,5.3576620119295315,2.2512315257059043,0.0
mp-541177,Gd4 V4 O12,20,3,11.484215467096092,8,2,62,3.45,51.248000000000005,0.0,7.572501759152423,4.438983562537059,1.5430849033384155,0.0
mp-4135,Rb4 P4 O12,20,3,16.51630597771792,0,7,14,2.4164000000000003,32.888,0.0,13.435561575244103,5.849588791772244,2.633865698671851,0.0
mp-972978,Sc1 V1 O3,5,3,10.856999407806049,2,1,221,3.4019999999999997,28.78,0.0,3.786401,2.5023059895263957,0.435935057710181,0.7257886889999998
mp-1253258,Al6 Cu6 O18,30,3,9.660913004707156,0,3,185,2.9360000000000004,27.706,2.0,10.488773,4.895856095842586,2.0132717460492753,0.20705489493939044
mp-1303831,Mg4 Fe4 O12,20,3,10.380102508478652,2,5,146,2.718,25.631999999999998,2.0,7.542571939873308,4.1121608964839655,1.3635303899890685,0.11400455625000028
mp-29164,Sr4 Bi4 O12,20,3,15.559793588216163,0,7,14,2.3400000000000003,68.92,0.0,8.505412235084272,4.913688892512748,1.7265699163771218,0.0
mp-1185203,Li1 Cd1 O3,5,3,10.646216214501429,3,1,221,2.118,33.468,2.0,3.761737,2.4860063754797905,0.4330954476785536,0.5380530354285717
mp-19056,Ho6 Mn6 O18,30,3,12.283497317439325,6,3,185,2.7720000000000002,53.568000000000005,0.5,11.407969970000428,5.434040184358857,2.2795440301513077,0.0
mp-22534,Sr1 Ru1 O3,5,3,17.842555093286144,0,4,123,3.2520000000000002,47.344,0.0,6.633684,3.1540175081205484,0.8292004742269194,0.5107391759999889
mp-1187364,Tb1 Si1 O3,5,3,10.364855389111414,0,1,221,3.2960000000000003,46.998000000000005,0.0,3.728302,2.4639103004048533,0.429246016872218,0.709497433999994
mp-1179551,Ti2 Cd2 O6,10,3,19.53942757687807,0,6,2,2.762,41.654,2.0,20.71513942569624,8.409548374520842,4.656283035704276,0.16593305600000008
mp-16415,La4 Pd4 O12,20,3,12.994851162264442,0,2,62,3.232,58.660000000000004,0.0,7.823997529252637,4.629671989018399,1.584953859147652,0.0056940617500025326
mp-976320,Eu1 Re1 O3,5,3,12.8131276853645,1,1,221,3.5379999999999994,77.24,0.0,4.001367,2.644369841016116,0.4606844742711125,0.2484921412692298
mp-635713,Ti2 Zn2 O6,10,3,14.820580247472666,0,6,2,2.8,32.25,2.0,7.715094971761797,3.775026543647353,1.3800033898429773,0.09579140550000886
mp-4651,Sr2 Ti2 O6,10,3,11.962507795144642,0,4,140,2.874,36.698,0.5,7.220092735926398,3.3805821573799615,1.072987670515019,0.0
mp-18747,Sr1 Mo1 O3,5,3,13.58924618006879,1,1,221,3.2680000000000007,46.314,0.0,4.080579,2.696718406855383,0.4698042922173199,0.08409752500000067
mp-19845,Ti1 Pb1 O3,5,3,12.505163584571164,0,1,221,2.936,60.614,2.0,3.969049,2.6230119539435335,0.45696364565441855,0.0412217460000015
mp-1045305,Ca4 Mo4 O12,20,3,12.59479290950372,4,6,2,3.2920000000000003,36.806,0.5,7.986283323281512,4.603507501655107,1.6179073866305154,0.009694809499999124
mp-752755,Na4 Sb4 O12,20,3,12.268951703873672,0,2,52,2.3326000000000002,38.558,0.5,8.49555347,4.401968429194315,1.550138563055064,0.03683609849999847
mp-1185261,Li1 Ni1 O3,5,3,10.760461726997237,4,1,221,2.774,22.726,2.0,3.775145,2.4948672749744736,0.4346391344813455,0.5024219344545484
mp-18808,Lu6 Mn6 O18,30,3,11.778096406526641,6,3,185,3.0300000000000002,55.588,0.5,11.312372590771503,5.302638616433761,2.210859778108798,0.0
mp-1186112,Ni1 Pt1 O3,5,3,12.367586798737676,2,1,221,3.6160000000000005,60.35799999999999,2.0,3.95444,2.6133573536513324,0.45528168559311294,1.2424035669999984
mp-1016826,Mg1 Ir1 O3,5,3,12.05987474322127,1,1,221,3.25,52.902,0.5,3.921368,2.5915011731554953,0.45147404762011656,0.7838253469999961
mp-1183878,Eu1 Cd1 O3,5,3,14.43280107422946,1,1,221,2.164,62.48,0.5,4.163324,2.7514018144245656,0.47933087071500924,0.5857820752500009
mp-530986,Mg32 Si32 O96,160,3,9.737978003865237,0,7,5,2.7880000000000003,20.080000000000002,0.5,16.396523716738763,8.11259543475037,3.312484013567315,0.10319220191667
mp-1183534,Ca1 Sc1 O3,5,3,13.630949883327293,3,1,221,2.708,26.607999999999997,0.5,4.084749,2.69947422061529,0.4702843917077467,0.24047543449999687
mp-556235,Ca4 C4 O12,20,3,12.247939683840523,0,7,14,3.402,20.018,0.5,8.465481904668906,4.585482154287309,1.890339735681923,0.0008676930000008909
mp-541129,Nd4 V4 O12,20,3,11.930366948071587,4,2,62,3.3019999999999996,48.628,0.0,7.71246632,4.527615465861526,1.559709825381498,0.0
mp-1184411,Eu1 Mo1 O3,5,3,13.786429126151024,2,1,221,3.2960000000000003,59.19,0.0,4.100221,2.709699148791136,0.4720657104885343,0.14966000124999823
mp-1373731,Al4 Mo4 O12,20,3,11.127635668560613,4,2,62,3.6020000000000003,34.186,0.5,8.205346,4.393772453942348,1.6459296295097041,0.17625915524999947
mp-5323,Ce1 Al1 O3,5,3,10.648712586798379,1,1,221,3.1020000000000003,43.016,0.5,3.76203913,2.486200670269975,0.4331292964474524,0.017115028999999282
mp-780260,Ti2 Ge2 O6,10,3,14.228736606278071,0,5,148,3.3,33.7,0.5,11.180751335082704,4.550170064138395,2.388569326815884,0.041048838166670265
mp-1180211,Na8 Zn8 O24,40,3,14.66308566357895,16,4,135,2.0526000000000004,27.274,2.0,12.781385,6.931220921135129,2.9250177973659635,0.3454508337500002
mp-1279343,Co2 Ni2 O6,10,3,9.475617404906611,4,6,2,3.3260000000000005,33.124,2.0,7.041751812265931,3.2162117953650182,0.8878422373685887,0.00036671099999896484
mp-605340,La4 Fe4 O12,20,3,16.66955357423796,4,2,31,3.31,48.55,0.5,9.124399,4.861333225188115,1.7448884490287495,0.29189288549999937
mp-752437,Sm4 In4 O12,20,3,13.788299695039564,0,2,62,2.492,62.64,0.0,8.238917,4.687574880675719,1.6231919261720624,0.030393086624997068