id,composition,Natom,Nelem,D,Nmag,CS,SG,E,M,MR,MSVL,dmean,dstd,ehull
mp-1211599,K4 Dy4 Br12,20,3,34.114012174112204,4,2,62,1.5268000000000002,88.26,0.5,11.057192,6.3687298830197845,2.335779129245086,0.14450882783333086
mp-1946459,Cs1 Ag1 Br3,5,3,31.83326615846773,0,1,221,1.4828000000000001,96.1,0.0,5.421714618616276,3.5828936958615274,0.625060065007868,0.002498219999996998
mp-27409,Rb2 Ni2 Br6,10,3,29.20606172205687,2,3,194,1.7904000000000004,76.772,0.5,9.009476248823129,4.848078586983242,1.466686556947678,0.0
mp-1220556,Nb4 Br12 O4,20,3,28.079642689683556,0,7,14,2.766,69.72200000000001,0.0,11.945866287365632,6.642170223964757,2.7162427980252137,0.0
mp-1014168,Cs2 Pb2 Br6,10,3,40.614133522480635,0,4,140,1.2988,115.96000000000001,0.5,10.780174348271183,5.097138798004906,1.5969766060382982,0.007483644999999317
mp-1209410,Rb6 Co6 Br18,30,3,30.621822614912016,6,5,165,1.7804000000000002,76.82000000000001,0.5,16.007597863799614,7.210903502422154,3.045508952037531,0.15067199800000264
mp-998606,Rb2 Tl2 Br6,10,3,39.395241681527565,0,5,161,1.2784,105.91400000000002,0.0,11.634563264022661,5.93107309741048,2.8911657235672648,0.02651117774999978
mp-1213235,Cs4 Pt4 Br12,20,3,47.53634533730791,0,2,62,2.0608,113.54,0.5,16.00263,7.482600858550662,3.1927588208873883,0.2544599139999981
mp-998366,Rb1 Se1 Br3,5,3,33.14419397911386,1,4,99,1.3943999999999999,80.828,0.0,5.49626467,3.643200153340122,0.6431413159585971,0.060095448890625125
mp-1120725,Cs2 Pb2 Br6,10,3,40.76294025266833,0,2,38,1.2988,115.96000000000001,0.5,8.22070277737366,5.325072438046101,1.8028136571982887,0.009077042999999119
mp-23048,Cs2 Mn2 Br6,10,3,33.149154253242514,2,3,194,1.4768000000000001,85.50800000000001,0.5,9.380849367453287,5.039407845111314,1.5203705816137245,0.0
mp-22962,Cs2 Ti2 Br6,10,3,32.93500476380869,2,3,194,1.8628,84.09400000000001,0.5,9.34054818312092,5.02651764108297,1.514585941721119,0.0
mp-1112177,Cs2 Tl2 Br6,10,3,40.00094090948631,0,1,225,1.2688000000000001,115.4,0.0,11.696162659999999,6.0236318360933865,2.8759766619855536,0.01224176974999791
mp-1211295,K4 Tm4 Br12,20,3,33.19463486354833,4,2,62,1.4028,89.54,0.5,10.939478,6.318532861695006,2.3175115513053877,0.1778132818888878
mp-28327,Li4 Ga4 Br12,20,3,27.41607454160935,0,7,11,1.6199999999999999,63.272000000000006,0.5,10.43678705,6.088956690243874,2.0864348772779344,0.0
mp-998226,Rb1 Ag1 Br3,5,3,32.32105495373339,0,4,99,1.4924,86.614,0.0,5.455467090311426,3.6197948199249033,0.638036466473657,0.0
mp-1213644,Cs2 Sc2 Br6,10,3,33.736449703658806,2,3,194,1.6728,83.51200000000001,0.0,9.675925131943671,5.067084367844486,1.5461136740260035,0.0030482149999961905
mp-29750,Cs2 Mg2 Br6,10,3,32.97912236044661,0,3,194,1.1948,79.382,0.5,9.367273723081405,5.039296144927676,1.521921551868202,0.0
mp-567718,K6 Ti6 Br18,30,3,30.731373824938604,6,3,173,1.8887999999999998,65.334,2.0,16.411355835857133,7.411528599375962,3.114240633220117,0.023100072583329023
mp-606393,Nb4 Br12 O4,20,3,27.770685981249283,0,4,113,2.766,69.72200000000001,0.0,11.87544428,6.541683293079098,2.5256872023621266,3.51775000009269e-05
mp-1206044,Cr2 Co2 Br6,10,3,25.81402917698158,4,3,194,2.4299999999999997,70.126,2.0,8.673617851194045,4.593475039643673,1.3826271993149057,0.7681150150000002
mp-558645,P4 Br12 O4,20,3,29.463261051639968,0,2,62,1.938,57.334,0.0,10.00192486,5.733288349986135,2.120054708839821,0.002085177300008567
mp-30056,Cs1 Ca1 Br3,5,3,37.20778669524778,0,1,221,1.2608000000000001,82.53600000000002,0.5,5.70866573,3.772666563415515,0.6572488028752587,0.0
mp-998176,Rb1 Pb1 Br3,5,3,42.84516158745025,0,7,8,1.3084,106.474,0.5,5.988620265943735,3.9588642839726007,0.6955424018973267,0.039393365000000014
mp-2649045,Cs1 In1 Br3,5,3,36.86624005899652,0,1,221,1.3968,97.47999999999999,0.0,5.69175635,3.7691576041155024,0.6619324227158241,0.024389516999996808
mp-1080570,Cs2 Ni2 Br6,10,3,31.03249116610713,2,3,194,1.7808,86.25800000000001,0.5,9.254253415620939,4.983980337266972,1.5193598457070934,0.0
mp-1097014,K4 Sn4 Br12,20,3,33.25208615181537,0,2,62,1.5468,79.5,0.5,16.58642631,7.41104138171089,3.3335529352163764,0.012274417499998691
mp-998778,Rb4 Sn4 Br12,20,3,35.05134084162276,0,2,62,1.5304,88.774,0.0,16.63637103,7.450160277992189,3.301210574945544,0.0
mp-504821,Tl4 Fe4 Br12,20,3,28.89716960614921,4,2,62,1.964,99.99000000000001,0.5,15.382907,7.189033207654613,3.191783973842965,0.05369842216666676
mp-998412,K1 Ge1 Br3,5,3,35.12810333097465,0,7,8,1.6887999999999999,70.286,0.5,5.688162202070546,4.292921623378654,1.4954895369774945,0.02523116800000036
mp-1112338,Cs2 In2 Br6,10,3,38.216884936346005,0,1,225,1.3968,97.47999999999999,0.0,11.51962722,5.952659877238168,2.8270429525882435,0.0
mp-1110931,K2 In2 Br6,10,3,37.16393352269377,0,1,225,1.4228,78.72,0.5,11.412844200000002,5.881815019519784,2.805169233579504,0.09779008049999893
mp-568553,Tl6 Fe6 Br18,30,3,28.10617328076227,6,3,185,1.964,99.99000000000001,0.5,15.55598290479139,6.962669562778378,2.926412000565908,0.12689998366666666
mp-998307,Cs1 Pd1 Br3,5,3,29.4343807757899,0,1,221,1.6707999999999998,95.8,0.0,5.281130655759491,3.761845819605307,1.0835473819692993,0.001813842000000232
mp-998536,Rb4 Ca4 Br12,20,3,34.14750598436858,0,2,62,1.2704,73.05,0.5,16.09469918,7.47620847029791,3.24906399319908,0.0
mp-570231,Cs1 Cd1 Br3,5,3,33.823750456066826,0,1,221,1.1248,97.0,0.5,5.53006949,3.6546382718904242,0.636686701240693,0.032675226999998586
mp-1111155,K2 Tl2 Br6,10,3,40.5140615144015,0,1,225,1.2948,96.64000000000001,0.5,11.745962000000002,6.033534390216059,2.892650055194826,0.07723567325000191
mp-600089,Cs1 Pb1 Br3,5,3,42.09989825488747,0,1,221,1.2988,115.96000000000001,0.5,5.94864079525211,3.9312502728400815,0.6848761512954471,0.02507302199999506
mp-998154,Tl1 Ag1 Br3,5,3,31.630777803210112,0,7,8,1.698,110.4,0.0,5.418142875546557,3.82488344549911,1.0755393228784869,0.04346307774999403
mp-998323,Cs1 In1 Br3,5,3,38.50281213048559,0,4,99,1.3968,97.47999999999999,0.0,5.774409,3.825477229720994,0.6722475384950067,0.018994597999997254
mp-1114101,Rb2 Tl2 Br6,10,3,41.08302697980292,0,1,225,1.2784,105.91400000000002,0.0,11.800692000000002,6.067923187437104,2.9043562138848236,0.02531489574999979
mp-1205521,Ca2 Tl2 Br6,10,3,32.86284841078922,0,2,63,1.476,96.83600000000001,0.5,10.87564125,6.624959249786972,2.4919367645913844,0.0
mp-1206103,Cs2 Tm2 Br6,10,3,35.23436485480939,0,4,127,1.3768,108.3,0.0,7.916547,4.845719837318718,1.5381526474790899,0.12196037088888545
mp-998297,Cs1 Sr1 Br3,5,3,42.570562650375265,0,7,8,1.2368000000000001,92.04400000000001,0.0,5.975709592139825,4.25165653209271,1.2320955273765537,0.02161265599999851
mp-998433,Cs2 Sr2 Br6,10,3,39.71752980366084,0,2,63,1.2368000000000001,92.04400000000001,0.0,11.54804055,5.762015998236757,2.0850051692352243,0.002299522999997805
mp-23038,Cs2 V2 Br6,10,3,32.61987564783033,2,3,194,1.9548,84.708,0.0,9.341414243149083,5.0293058905781844,1.5209343604354895,0.0
mp-1110999,Rb1 Au1 Br3,5,3,32.144420325112215,0,1,221,1.6643999999999999,104.43400000000001,0.5,5.43699,3.5931251449582633,0.6259702945936463,0.04629739299999969
mp-27214,Cs1 Sn1 Br3,5,3,39.81499570404835,0,1,221,1.5208,98.26000000000002,0.0,5.83900561,3.8588038379403615,0.6722550642590208,0.01119513949999984
mp-1209227,Rb1 Ca1 Br3,5,3,37.758448591955464,0,1,221,1.2704,73.05,0.5,5.73669,3.791186867702649,0.660475286747341,0.02374403749999976
mp-1247749,Cs4 Sn4 Br12,20,3,39.15104657449597,0,2,62,1.5208,98.26000000000002,0.0,11.71381062,6.877365968130788,2.427545245518013,0.0
mp-1096790,Cu2 Pb2 Br6,10,3,36.49918192233401,0,4,140,1.8359999999999999,102.09,2.0,10.382553193072345,5.206852456795588,1.759109015809167,0.4657944494999997
mp-1209279,Rb4 Dy4 Br12,20,3,35.69990999340209,0,2,62,1.5104,97.534,0.0,11.258521,6.525049965200654,2.4118746771322273,0.12948407705555498
mp-998415,Cs1 Se1 Br3,5,3,34.4693454496133,0,7,6,1.3848,90.31400000000001,0.0,5.575018,3.9676279692585377,1.1444429682590012,0.055352845470587386
mp-29763,Rb2 Mn2 Br6,10,3,31.629598840839144,2,3,194,1.4864000000000002,76.022,0.5,9.19510090456571,4.935345195923869,1.4823590143691083,0.0017359386666635501
mp-998553,K2 Ag2 Br6,10,3,30.045017184056643,0,5,161,1.5088000000000001,77.34,0.5,10.372556667756788,5.321520145035677,2.553681880226761,0.0
mp-998749,K1 Ca1 Br3,5,3,37.42631674727398,0,7,8,1.2868,63.775999999999996,2.0,5.7308021778818725,4.043259000851063,1.1350329352750492,0.05455036600000085
mp-28534,Ca2 In2 Br6,10,3,32.7873726444337,0,2,63,1.6039999999999999,78.91600000000001,0.5,10.88832447,5.582783859530971,2.093970054410033,0.0
mp-1079481,Al2 S2 Br6,10,3,37.993531117741725,2,5,164,1.98,59.75,0.5,9.718083863471133,4.930467829084311,1.6715955071858755,0.36106001287500256
mp-998306,Cs1 Pd1 Br3,5,3,30.327935496519018,0,2,38,1.6707999999999998,95.8,0.0,5.334181746063886,4.068578262853703,1.3633838838104464,0.0018728939999976824
mp-1213104,Cs4 Sr4 Br12,20,3,41.190624272874956,0,2,62,1.2368000000000001,92.04400000000001,0.0,11.79237493,6.834979056684566,2.5116940803488093,0.0
mp-1079040,Cs2 Dy2 Br6,10,3,36.83057089588313,2,4,127,1.5008000000000001,107.02000000000001,0.0,8.017402,4.918368589829886,1.5580059563558621,0.09248469733332954
mp-541899,Cs2 Cd2 Br6,10,3,35.16365216763894,0,3,194,1.1248,97.0,0.5,9.492444118278984,5.100413407640298,1.5281627148640917,0.0
mp-1209578,Rb6 Co6 Br18,30,3,30.066771701219746,6,5,158,1.7804000000000002,76.82000000000001,0.5,15.818507611015395,7.324000910026872,3.0704995726013986,0.06404935100000264
mp-1120721,Rb2 Ge2 Br6,10,3,35.93295999849223,0,7,11,1.6724,79.56,0.0,8.475969011067201,4.937342836127923,1.4433587638373715,0.0
mp-568231,Rb6 Mn6 Br18,30,3,31.85133292841851,6,3,185,1.4864000000000002,76.022,0.5,15.91529294536079,7.231263421441677,3.007217493903059,0.0
mp-1385732,Rb1 Pd1 Br3,5,3,29.649210721519474,0,2,38,1.6804000000000001,86.31400000000001,0.0,5.296201,3.7691526393421277,1.0850645205022793,0.007196885999998237
mp-1079847,Cs2 Fe2 Br6,10,3,30.90984456395667,2,3,194,1.7488,85.69000000000001,0.5,9.334687738284662,5.0516417799873246,1.5643690906842693,0.12124925800000064
mp-617426,In4 Fe4 Br12,20,3,26.188373403484746,4,2,62,2.092,82.07000000000001,0.5,15.284974,7.139071490242969,3.156004443870466,0.2641367460000068
mp-998194,Rb1 In1 Br3,5,3,37.72465127429008,0,7,8,1.4064,87.994,0.0,5.739233603714176,3.8077354231101035,0.668522458641749,0.041326333500001144
mp-23498,Nb4 Se4 Br12,20,3,30.749153197870776,0,7,13,2.7380000000000004,82.316,0.0,12.76242771582175,6.07689045970603,2.3571718155028107,0.0
mp-567681,Cs4 Pb4 Br12,20,3,38.460358787334414,0,2,62,1.2988,115.96000000000001,0.5,16.95083421,7.762887754203281,3.4489874206081392,0.0
mp-998196,Rb1 Cu1 Br3,5,3,27.228754863555288,1,1,221,1.6004,77.744,0.5,5.154021236992396,3.3987048248638123,0.5921246992318613,0.013992915999998967
mp-1209412,Rb6 Co6 Br18,30,3,30.655681903738195,6,3,185,1.7804000000000002,76.82000000000001,0.5,15.989688263245721,7.204614146130649,3.0344530582232494,0.19543154066666935