id,composition,Natom,Nelem,D,Nmag,CS,SG,E,M,MR,MSVL,dmean,dstd,ehull
mp-1273989,La4 Co4 O12,20,3,12.159843791715044,4,7,14,3.332,49.166000000000004,0.5,8.03502361864467,4.4209254835506435,1.5621844309549144,0.017920455499999655
mp-1206118,V2 Co2 O6,10,3,10.484497603539772,4,6,2,3.5,31.574,0.5,7.233153027830483,3.284442966344626,0.911726937468513,0.022131890499997198
mp-1183176,Al1 Ni1 O3,5,3,9.788413388352886,4,1,221,3.1260000000000003,26.734,2.0,3.657863,2.4173595173271365,0.42113624996426313,0.8696336579242434
mp-975159,Rb1 Zn1 O3,5,3,14.44061285317359,3,1,221,2.0004,39.769999999999996,0.5,4.164075,2.751898125247993,0.47941733467599507,0.41868662400000023
mp-755471,Lu4 Cr4 O12,20,3,10.50114058627569,4,2,62,3.2659999999999996,55.0,0.5,7.45708665,4.28992152265329,1.4785084466572413,0.0
mp-1379411,Y4 Mo4 O12,20,3,12.292973495743832,4,2,62,3.7980000000000005,46.572,0.0,7.82605709,4.497237068728662,1.5673365680081166,0.02956915059375298
mp-753995,Y4 Tm4 O12,20,3,13.931063683912281,0,2,62,2.918,61.162,0.0,8.305271,4.695170869088804,1.6302313022239254,0.0886505906250008
mp-1185498,Lu1 Np1 O3,5,3,14.801052787396781,1,1,221,3.3920000000000003,92.0,0.0,4.198436,2.774606162802947,0.48337337750346626,0.5750024781874963
mp-1185488,Lu1 Ga1 O3,5,3,10.687621501610433,0,1,221,3.008,58.544000000000004,0.0,3.76660741,2.48922506682137,0.4336561866136062,0.4645502309999987
mp-754092,Sc4 Ti4 O12,20,3,10.727286405464193,4,2,33,3.31,28.165999999999997,0.5,7.539189,4.326530095159125,1.5191425856834861,0.09663837387499896
mp-1101715,V4 Cr4 O12,20,3,9.948531904676008,8,6,2,3.442,30.188,0.5,9.081590280926834,4.507037954887444,1.7684631736912069,0.009702037625004323
mp-1399857,Y2 Ni2 O6,10,3,12.387001707331976,2,3,194,3.322,39.12,0.5,11.365723,4.632404146193519,2.3298195370201817,0.2545485009999995
mp-1184751,In1 Si1 O3,5,3,9.829864010480005,0,1,221,2.99,38.178,0.0,3.663019,2.4207669455636065,0.42172986938216234,0.5619665706666659
mp-1281528,La4 Mn4 O12,20,3,12.515244990390931,2,2,26,3.0380000000000003,48.368,0.5,11.072240103813035,5.255531483113056,2.165064222113935,0.17690092545238123
mp-755569,Co4 Pb4 O12,20,3,10.934001555316502,4,2,62,2.8440000000000003,62.826,2.0,7.560218,4.406097139283561,1.5424974613752633,0.13891524799999821
mp-1182197,Nd4 Mn4 O12,20,3,201.57091476420993,16,7,14,2.8240000000000003,49.428,0.5,19.922937283693987,11.629394991346697,4.315827298615503,3.9710545234999994
mp-976185,Na1 Be1 O3,5,3,9.248777222928545,3,1,221,2.4466,16.00044,2.0,3.589369,2.372094119804101,0.41325041435340176,0.45926111300000017
mp-1183972,Cs1 Sr1 O3,5,3,23.95941108657994,3,1,221,2.0648000000000004,53.70399999999999,0.0,4.929642,3.2578357925694816,0.567558420188599,0.43377394
mp-755231,Li4 Te4 O12,20,3,12.39234135067308,0,2,34,2.3240000000000003,36.507999999999996,0.5,8.960911,4.489313311033154,1.679491152552269,0.06271661575000032
mp-984628,Ca1 B1 O3,5,3,8.426513417004648,0,1,221,3.09,19.778,0.5,3.47968,2.299604322319587,0.4006217253832763,0.8974337456250012
mp-754657,Hf4 Mn4 O12,20,3,11.99325942640856,4,2,62,3.432,56.288,0.5,7.90669700000692,4.51858064646416,1.6323303498304067,0.053209350499997754
mp-1186220,Nb1 Fe1 O3,5,3,12.834995043655217,1,1,221,3.9300000000000006,39.352,0.5,4.003642,2.645873312551797,0.4609463990530598,0.5558583014999883
mp-1101333,Sr1 Nd1 O3,5,3,18.182071350056862,4,1,221,2.5840000000000005,55.964,0.0,4.496464,2.9715629165769313,0.5176858693339006,0.3580356817499979
mp-21344,Cu2 Ge2 O6,10,3,12.88512423547678,2,2,51,3.028,36.836,0.5,8.745921,4.167448896018526,1.7032907147974816,0.032394393333335714
mp-3834,Ba1 Zr1 O3,5,3,14.949092648283042,0,1,221,3.1900000000000004,55.303999999999995,2.0,4.21238715,2.7838260119963576,0.4849795981283743,7.172199999949669e-05
mp-1016903,Cd1 Ge1 O3,5,3,10.82339133451445,0,1,221,2.5620000000000003,46.606,0.5,3.78249,2.4997213402182425,0.4354847773487759,0.3024235816249998
mp-1179112,Sr4 Ru4 O12,20,3,19.34642682421666,1,2,62,3.2520000000000002,47.344,0.0,14.282888,6.492112182372498,3.1441969568950894,0.4966343154999908
mp-1187202,Sr1 Pt1 O3,5,3,13.408730676006181,0,1,221,3.072,66.144,0.5,4.06243,2.6847243387670012,0.46771476568212667,0.15976486974999915
mp-752713,Ho6 B6 O18,30,3,10.727994610961057,0,2,63,3.35,44.742000000000004,0.0,8.78765674,4.959897197345359,1.8819829661667853,0.0
mp-20641,Mn2 Co2 O6,10,3,9.619991342161018,4,5,148,3.022,32.374,2.0,7.929245046414385,3.8476952006259335,1.5638571745186776,0.0
mp-770830,Ho4 Bi4 O12,20,3,15.162883961027484,0,2,62,2.624,84.376,0.0,8.435383,4.870034142426228,1.6850549336140384,0.03586014037500185
mp-1183288,Ba1 In1 O3,5,3,15.744329754361772,2,1,221,2.444,60.02,0.5,4.285795,2.832338808906473,0.49343117399847647,0.0772048647500041
mp-19002,Tm4 Ni4 O12,20,3,10.188793590696529,4,2,62,2.932,55.11800000000001,0.5,7.30375113,4.2435538721774915,1.5174014367672894,0.006951606333332805
mp-1185896,Mg1 Mo1 O3,5,3,12.823649750450262,1,1,221,3.2260000000000004,33.652,0.5,4.002462,2.6450934899530703,0.460810543561764,0.6407682829999963
mp-1186110,Np1 Al1 O3,5,3,10.681200948947861,1,1,221,3.184,62.396,0.5,3.765853,2.4887265024428062,0.4335693300532771,0.042764798062499665
mp-556003,Ca2 Ti2 O6,10,3,11.252875726749469,0,2,74,2.898,27.189999999999998,2.0,7.044596667863811,4.103824311044767,1.5709807337057642,0.011411810500000286
mp-4482,Na2 Sb2 O6,10,3,12.883098377675015,0,5,148,2.3326000000000002,38.558,0.5,9.146097507161896,4.361368919159977,1.7829837178512462,0.0
mp-4535,Pr4 Ga4 O12,20,3,12.10886911601356,0,2,62,2.862,51.724000000000004,0.0,7.837221,4.572269815733286,1.5834570418664589,0.029260600857143437
mp-20427,Pr1 Co1 O3,5,3,11.13825662182277,1,1,221,3.178,49.566,0.5,3.818819,2.523724915799961,0.43966652016930413,0.11634092800001383
mp-4096,Ce2 Al2 O6,10,3,10.662207029006254,2,4,140,3.1020000000000003,43.016,0.5,6.987357895790148,3.508428666187486,1.2518950176803543,0.005600195999997837
mp-545783,Ba1 Bi1 O3,5,3,17.365451551400163,0,1,221,2.3760000000000003,78.856,0.5,4.428113,2.9263920229789955,0.5098164975664761,0.021211001999999368
mp-1187494,Tl1 B1 O3,5,3,8.834156296029954,0,1,221,3.098,52.64200000000001,0.0,3.53491,2.3361039851396486,0.4069804531665547,1.1100852811666684
mp-974581,Re1 Bi1 O3,5,3,13.026335503545472,0,1,221,3.6019999999999994,88.636,0.0,4.023439,2.658956488811959,0.46322566274897786,0.501802836375
mp-1187145,Sr1 Dy1 O3,5,3,16.7243428324545,4,1,221,2.512,59.624,0.0,4.372935,2.8899267252226073,0.5034637566353564,0.2528056500000009
mp-19327,Lu4 Ni4 O12,20,3,10.041108924176452,4,2,62,3.3340000000000005,56.338,0.5,7.2716988031879435,4.234214065346186,1.4531573143760879,0.015057614208335401
mp-770767,Sm4 Cu4 O12,20,3,11.789062607300648,0,2,62,2.6860000000000004,52.39,0.5,7.09825327,4.448684593340766,1.4945263764154864,0.007153406687498531
mp-1291939,Sr4 Ni4 O12,20,3,11.881291006910192,16,2,51,2.7920000000000003,38.862,0.5,11.129725542402303,4.998507385156797,2.167000984078312,0.05207428849999296
mp-22364,Cr1 Pb1 O3,5,3,12.020143977039634,1,1,221,2.786,61.44,2.0,3.917057,2.588652177203707,0.4509777145497976,0.15658225600000453
mp-1184304,Eu1 In1 O3,5,3,14.725614945526369,1,1,221,2.436,62.96,0.0,4.191291,2.769884270880996,0.4825507609904926,0.5066763509999994
mp-1078668,Ni2 Pb2 O6,10,3,11.763280280756856,2,5,161,2.854,62.778,2.0,7.091243309610782,3.8683415392395424,1.42893562759014,0.0
mp-13108,Sr1 Hf1 O3,5,3,14.201696747569837,0,4,99,3.192,62.824,0.0,4.146736,2.7057777041836273,0.45326453166591385,0.03289641699998214
mp-770488,Co8 Pb8 O24,40,3,11.095049725071089,8,2,55,2.8440000000000003,62.826,2.0,10.812615,5.427835259547119,2.1497258305834963,0.15222651974999835
mp-550781,Sr4 Co4 O12,20,3,13.129851485669676,4,7,11,2.782,38.910000000000004,0.5,9.703398102190052,5.3640456470911575,2.2499247494599675,0.08770489212903332
mp-1186401,Pa1 Si1 O3,5,3,11.156510390966826,1,1,221,2.4859999999999998,61.41799999999999,0.0,3.820904,2.5251078701398404,0.4399074492493166,1.001981955000005
mp-19267,Ba6 Mn6 O18,30,3,13.951148256083691,6,3,185,2.524,48.048,2.0,12.161906573166052,5.495419661713142,2.321235918532756,0.005607107666667055
mp-5915,Tl8 N8 O24,40,3,14.913667227875298,0,2,62,2.9200000000000004,53.282,0.0,12.19729243,5.91697541856155,2.3769646462390566,0.0
mp-1181636,Cu4 Ge4 O12,20,3,12.366052362909777,2,2,53,3.028,36.836,0.5,8.253362,4.606564588429239,1.7979451412871423,0.0396674153333354
mp-754608,V4 Si4 O12,20,3,10.59033185993541,4,7,15,3.5480000000000005,25.406,0.0,6.859583366489077,4.041081698540913,1.4163943161483297,0.020424157416659483
mp-763200,Li2 V2 O6,10,3,10.792854975417988,0,7,5,2.948,21.176,0.5,5.931429469481366,3.2345449121268564,0.9935532182832536,0.08530730800000708
mp-20461,Ba2 Pb2 O6,10,3,16.54915487031142,0,7,12,2.346,78.5,2.0,8.016686648815215,3.633945276228463,0.9853576480076197,5.183500000072172e-05
mp-1186154,Na1 Ni1 O3,5,3,11.158717951831076,4,1,221,2.6706000000000003,25.936,2.0,3.821156,2.5252744085253314,0.43993646245593226,0.3216883469999994
mp-38220,Rb2 N2 O6,10,3,18.209644394540167,0,5,167,2.7144000000000004,29.496000000000002,0.0,11.03974256709192,5.140989058738358,2.178044417708661,0.023134585000000207
mp-761524,Mg2 Co2 O6,10,3,9.5380426271781,2,5,148,2.7399999999999998,26.248,2.0,7.861727485387475,3.8415470419230986,1.5178446172156643,0.06652823725000001
mp-1274711,Fe4 B4 O12,20,3,11.809085868426186,4,3,194,3.5780000000000003,22.932,0.5,8.802139859473465,4.632247356707436,1.9552867748454084,0.10247873100000149
mp-555735,Ca4 Ir4 O12,20,3,11.434500367437774,4,2,62,3.3160000000000003,56.056,0.5,7.646285592784989,4.427957567449974,1.5667857901018234,0.024495218999999402
mp-1187784,U1 B1 O3,5,3,9.236723441872503,1,1,221,3.832,59.362,0.0,3.587809,2.37106316789392,0.4130708087886378,0.9734987449791657
mp-1278738,La2 Mn2 O6,10,3,12.239876650609622,2,4,123,3.0380000000000003,48.368,0.5,5.5690407833753355,3.7275133235517677,1.2739313479680923,0.21559782845238118
mp-667421,Sr24 Te24 O72,120,3,18.852480562811472,0,6,2,2.342,52.644000000000005,0.0,26.735195082911435,11.381150498691968,5.538062533717603,0.006554397499999531
mp-1184445,Eu1 Ir1 O3,5,3,12.900910424682612,2,1,221,3.3200000000000003,78.44,0.0,4.010484,2.6503949618911933,0.461734130639031,0.3960997172499994
mp-1183160,Al1 In1 O3,5,3,10.251652288736773,0,1,221,2.742,37.956,0.5,3.714679,2.454907314589215,0.4276775767383849,0.4678045475000001
mp-1186742,Pr1 Be1 O3,5,3,9.970530074330131,3,1,221,2.964,39.582440000000005,0.5,3.680409,2.4322594158956883,0.42373201090219165,0.2529640311249999
mp-1020115,Mg16 Si16 O48,80,3,11.010231713092123,0,7,7,2.7880000000000003,20.080000000000002,0.5,18.69533951937118,7.973066679290874,3.8644996675459926,0.012783414166669615
mp-1213226,Cs4 P4 O12,20,3,18.551450890593433,0,7,14,2.4068,42.374,0.0,14.135323301290018,6.143923749150508,2.7710218031504823,0.0
mp-1078659,Ca2 Rh2 O6,10,3,11.13420908940552,2,2,63,3.0780000000000003,38.196000000000005,0.5,7.297586080447128,3.8134513684162883,1.3848952219445383,0.0
mp-776150,Sc2 Ag2 O6,10,3,13.201168072464615,0,2,65,2.93,40.172000000000004,0.0,7.192589769066633,3.892510494426191,1.3489715979582155,0.06087044262499841
mp-974842,K1 Pt1 O3,5,3,13.250735147892106,2,1,221,2.9148000000000005,56.44,2.0,4.046411,2.6741379165559827,0.4658704698218997,0.12546218016666533
mp-753992,Co2 Ag2 O6,10,3,11.271986320984167,10,5,148,3.028,42.966,0.5,9.026229467907825,4.223349610233302,1.754995516130572,0.09311912849999615
mp-3316,Ba2 Ce2 O6,10,3,17.226711111864294,0,2,74,2.8040000000000003,65.08,0.5,8.798936423793672,4.1604139905950674,1.523911556641428,0.000642611000001736
mp-1016884,Ca1 Ge1 O3,5,3,10.82980510175086,0,1,221,2.6980000000000004,32.141999999999996,0.5,3.783237,2.500215007575233,0.4355707807826726,0.1707720013333347
mp-861873,Ta1 Tl1 O3,5,3,13.611927628922677,0,1,221,3.556,86.66,0.0,4.082848,2.6982179131914092,0.4700655262086338,0.10736485474999924
mp-557081,Ba14 Cr14 O42,70,3,13.392002749174573,14,3,194,2.7600000000000002,47.46,2.0,32.846124,11.808642521482668,7.2743466381887565,0.0816520543392878
mp-38035,Sr2 C2 O6,10,3,14.878143430174456,0,5,167,3.378,29.526,0.0,10.763865878343683,6.568613150215954,3.886928649050689,0.023224607500000438
mp-548658,Rb2 P2 O6,10,3,19.761800656873497,0,2,63,2.4164000000000003,32.888,0.0,9.462833871811974,5.01825636443023,1.9021042095562584,0.05178050174999971
mp-1016831,Hg1 Ir1 O3,5,3,12.485117140785809,0,1,221,3.082,88.16,0.5,3.966927,2.621609594999044,0.45671933603363074,0.40191207849999966
mp-1017467,Ca1 Mn1 O3,5,3,10.989274138826286,1,1,221,2.512,28.603999999999996,2.0,3.801716,2.5124271616446143,0.4376983008027196,0.1165496273333364
mp-1181917,Ca4 Rh4 O12,20,3,11.315368150548839,4,2,62,3.0780000000000003,38.196000000000005,0.5,7.62858879,4.433998269128173,1.5290972533363274,0.025026484500001445
mp-676694,Li12 Nb12 O36,60,3,11.164979232661988,0,6,1,3.4,29.57,0.5,25.959531447211724,9.568212461230255,5.640616464069771,0.008015285666669314
mp-9890,Ta2 Ag2 O6,10,3,12.50421701330729,0,5,167,3.7700000000000005,67.36,0.0,8.044414778036598,4.058549246494438,2.0030022697393064,0.022071615999996297
mp-1183045,Zr1 Ti1 O3,5,3,11.49443835622483,0,1,221,3.78,37.418,2.0,3.859099,2.550349670274047,0.4443049072917268,0.7219286569999888
mp-779389,Cs2 Cl2 O6,10,3,23.614650286890377,0,7,11,2.0008000000000004,43.27,0.0,8.15665221972134,3.992033178602001,1.5602062209373826,0.06417756962499865
mp-1182592,La1 Al1 O3,5,3,25.014345715165994,0,3,191,3.132,42.775999999999996,0.5,6.404770949015216,3.1178968252196393,0.7797326947875124,2.9052459630000023
mp-1120793,Li4 Mn4 O12,20,3,9.157742792953115,16,2,62,2.47,21.976,2.0,7.076345,4.102505405075812,1.410124722546593,0.18392001396666569
mp-1080782,Ba2 Cl2 O6,10,3,18.635911971052625,4,4,129,2.22,44.15,0.5,13.015271,4.718318092204457,2.166508867090887,0.9169708651599944
mp-1099873,Ca1 Cu1 O3,5,3,11.005932456344825,0,1,221,2.6260000000000003,30.326,2.0,3.803636,2.5136960255340677,0.4379193538055061,0.16247519337499838
mp-10798,Hg4 Se4 O12,20,3,15.812235774333061,0,7,14,2.186,65.514,0.5,9.14933303,4.866380983359074,1.7713977638071505,0.004895135499999981
mp-21125,Lu4 Mn4 O12,20,3,11.26668598717019,4,2,62,3.0300000000000002,55.588,0.5,7.443986,4.372074686542016,1.492873303210267,0.050306498166669655
mp-36903,K2 N2 O6,10,3,17.270276459440712,0,7,11,2.7308,20.222,0.5,7.193296915261325,3.838397553934309,1.515594791055224,0.007499554500000727
mp-1239170,Zr1 Be1 O3,5,3,13.948148160152467,0,1,221,3.474,29.646440000000002,2.0,4.116191,2.720253188538309,0.47390436489191906,1.6305065499999998
mp-1189181,V4 N4 O12,20,3,15.13227358617566,12,2,57,3.6060000000000003,22.59,0.0,15.468759,6.1364326515049665,3.101343284896909,0.39570855150000295
mp-1075975,Eu1 Co1 O3,5,3,10.717507320015255,2,1,221,2.81,51.786,0.5,3.770115,2.4915431159307495,0.434060021666754,0.22377254600000107
mp-1068742,Sr1 Zr1 O3,5,3,14.916431609586699,0,4,99,3.154,45.368,0.5,4.274988,3.2005526828903994,0.7879795720148286,0.04834072549999746
mp-20460,Ni4 Se4 O12,20,3,10.878068342739068,4,2,62,2.9400000000000004,37.132,0.5,7.497941220130562,4.312751096947895,1.635068651861425,0.0
mp-755717,Sm4 Ho4 O12,20,3,14.667976398520832,0,2,62,2.6160000000000005,72.66,0.0,8.446944,4.785535745433733,1.6610309754804156,0.06693263700000074
mp-1185015,K1 Np1 O3,5,3,15.740008582508398,1,1,221,2.6928000000000005,64.82000000000001,0.5,4.29310949,2.8320943941031613,0.4934094807387762,0.0
mp-1180548,Li2 I2 O6,10,3,15.984612568357003,0,2,63,2.108,36.368,0.5,8.186200924185892,3.997948258787726,1.4156593725452695,0.3390186064999998
mp-18769,Ce4 V4 O12,20,3,11.91039940584282,8,2,62,3.4859999999999998,47.808,0.0,7.6941485,4.5332722865998925,1.5588097133576972,0.004009321799998133
mp-3395,Sr2 Se2 O6,10,3,15.321182131644218,0,7,11,2.396,42.918,0.0,6.771493579727317,3.734655523965883,1.242708060553084,0.0
mp-625856,Te8 H8 O24,40,3,12.019472513603144,0,7,7,1.998,35.321600000000004,0.0,11.523334,6.073385602708239,2.539001543550285,0.04292559574999988
mp-754578,Tm4 Ga4 O12,20,3,11.093829440794726,0,2,62,2.6060000000000003,57.324,0.0,7.599725,4.366095960507815,1.5254291423848059,0.050875326100000784
mp-1020193,K4 N4 O12,20,3,15.764160392563124,0,7,14,2.7308,20.222,0.5,13.780020375771079,5.983992058367272,2.8451882628483487,0.013152605000001039
mp-760484,Tm2 B2 O6,10,3,11.635561242130827,0,2,40,3.2060000000000004,45.542,0.0,8.470664,3.827973569593789,1.7031421156155386,0.030025047600002353
mp-1101279,Tm4 Tl4 O12,20,3,14.235171174049242,0,2,62,2.4200000000000004,84.26,0.0,8.490321,4.756509303201954,1.6629577972635396,0.08849144224999961
mp-645158,La4 Mn4 O12,20,3,16.66505704402116,4,7,14,3.0380000000000003,48.368,0.5,10.297857,5.643424007878479,2.1379968420464395,0.42135311545238174
mp-753781,Eu1 Hf1 O3,5,3,13.760881450817617,1,1,221,3.22,75.7,0.0,4.097735932509431,2.9201123364200203,0.8413293549707409,0.0
mp-1405134,Ti2 Al2 O6,10,3,10.563784455287283,0,3,194,3.2079999999999997,24.57,2.0,12.059897,4.839555501563278,2.533292876127961,0.2579223145
mp-1260288,Mn6 Al6 O18,30,3,10.332028860655624,6,3,185,2.822,25.984,2.0,11.394884,5.197568035961263,2.239104461764549,0.28303761994318144
mp-865424,Cs1 U1 O3,5,3,17.2165354854408,1,1,221,2.8308,83.78,0.0,4.415419,2.9180029822432028,0.5083550148490954,0.02146960400001241
mp-34195,Ba2 C2 O6,10,3,15.132585039685978,0,7,11,3.414,39.462,0.5,6.348453651685806,3.473930420712195,1.2541015354032594,0.03535959000000144
mp-974734,K1 In1 O3,5,3,15.995139299905006,3,1,221,2.2508000000000004,40.38,0.5,4.308433,2.8472995072030605,0.49603752705945514,0.2916370473333334
mp-674482,Mn8 Fe8 O24,40,3,10.885712895429354,16,2,73,3.0,31.758,2.0,9.564680826868567,6.0661911475773955,2.5653831801249236,0.011560887437500611
mp-676865,Ba6 Ge6 O18,30,3,18.932842777200207,0,6,1,2.71,51.586,0.5,11.573400589178778,5.637699541744059,2.1206190287288442,0.45118400616666676
mp-7027,In2 B2 O6,10,3,10.535335310154867,0,5,167,3.2260000000000004,34.722,0.0,8.959865533915508,4.467153193874667,2.2535493633110493,0.0
mp-766256,Y8 Tm8 O24,40,3,14.448043649561322,0,7,5,2.918,61.162,0.0,13.711420904253083,6.154977620429428,2.530280810461846,0.0018952695000002961
mp-1184948,K1 Mn1 O3,5,3,12.38390085157107,4,1,221,2.3308,28.407999999999998,2.0,3.956178,2.6145059398179313,0.45548178461334354,0.28001399118185777
mp-1099934,Ca1 Co1 O3,5,3,10.66110682120731,1,1,221,2.806,29.401999999999997,2.0,3.76349,2.4871648746455253,0.4332972736753685,0.16033285666666774
mp-1183692,Co1 Sn1 O3,5,3,10.485342242032818,1,1,221,3.066,45.126,0.5,3.742693,2.4734208317762736,0.4309028782071657,0.6837517235000048
mp-1184950,K1 Zr1 O3,5,3,15.226513331067562,3,1,221,2.9968000000000004,35.664,2.0,4.238285,2.800941036308589,0.4879612634972351,0.0663136548333334
mp-2647164,Mg12 C12 O36,60,3,9.110981433385762,0,7,12,3.336,16.863999999999997,0.5,10.01250104451053,5.706986151441734,2.1764193630262243,0.31464865683333354
mp-1290304,Cd4 Fe4 O12,20,3,11.357611732937066,4,7,14,2.6480000000000006,43.25,2.0,7.669645870179302,4.488960208833215,1.5942618754748128,0.09298689075000066
mp-3283,Rb4 Nb4 O12,20,3,17.71673224524754,0,6,2,3.2444,45.275999999999996,0.0,10.386695721870652,5.878335272518249,2.5579911666893405,0.0
mp-756083,Ti6 Cr6 O18,30,3,11.200697719355219,10,6,1,3.35,29.574,2.0,14.210704748397024,6.114657319053897,2.8913921814937606,0.12372662583333671
mp-769393,Dy8 Se8 O24,40,3,15.463739602563383,0,7,14,2.66,57.894000000000005,0.0,12.221477921385627,6.167315085502872,2.4738215237829504,0.0
mp-1184220,Ga1 Te1 O3,5,3,11.746898730372354,0,1,221,2.56,49.064,0.0,3.887148,2.568886317792422,0.4475342383725375,0.6135296924166651
mp-1101375,Sc2 Ti2 O6,10,3,11.347907294930623,2,5,148,3.31,28.165999999999997,0.5,8.244005611002478,4.073538298182837,1.6640478948319413,0.06920200787500086
mp-1185490,Lu1 Pd1 O3,5,3,12.455153649837689,0,1,221,3.224,65.88,0.0,3.963751,2.619510682648573,0.45635367752485473,0.6842253166249996
mp-1340758,Y4 Cu4 O12,20,3,11.172659954990829,0,2,62,3.132,40.092,0.5,7.494229,4.392745762493557,1.5281287354756823,0.023352243704543696